                         Program Version 3.0.3 - RELEASE   -
|  1> # ================================================================
|  2> # Orca input file for cubane B3LYP/def2-TZVP geometry optimization
|  3> # ================================================================
|  4> ! DFT B3LYP def2-TZVP TightSCF TightOPT UseSym
|  5> ! PAL4
|  6>
|  7> * xyz 0 3
|  8>   H                     2.04891114    -1.28385753     0.01639629
|  9>   C                     1.07007002    -0.81239360    -0.05546669
| 10>   H                     2.04891114     1.28385753     0.01639629
| 11>   C                     1.07007002     0.81239360    -0.05546669
| 12>   H                     0.00000000    -1.61019161    -2.01437011
| 13>   C                     0.00000000    -1.32325628    -0.96962522
| 14>   H                     0.00000000     1.61019161    -2.01437011
| 15>   C                     0.00000000     1.32325628    -0.96962522
| 16>   H                     0.00000000    -1.43928333     1.95057909
| 17>   C                     0.00000000    -0.77017176     1.09445645
| 18>   H                     0.00000000     1.43928333     1.95057909
| 19>   C                     0.00000000     0.77017176     1.09445645
| 20>   H                    -2.04891114    -1.28385753     0.01639629
| 21>   C                    -1.07007002    -0.81239360    -0.05546669
| 22>   H                    -2.04891114     1.28385753     0.01639629
| 23>   C                    -1.07007002     0.81239360    -0.05546669
| 24> *
| 25>
| 26>                          ****END OF INPUT****
 Total Charge           Charge          ....    0
 Multiplicity           Mult            ....    3
 Number of Electrons    NEL             ....   56
FINAL SINGLE POINT ENERGY      -309.296905803325
FINAL SINGLE POINT ENERGY      -309.296908100887
FINAL SINGLE POINT ENERGY      -309.296908103725
                    ***********************HURRAY********************

CARTESIAN COORDINATES (ANGSTROEM)
---------------------------------
  H      2.049820    1.283929   -0.013650
  C      1.070630    0.812534    0.058161
  H      2.049820   -1.283929   -0.013650
  C      1.070630   -0.812534    0.058161
  H      0.000000    1.608845    2.017987
  C     -0.000000    1.323887    0.972558
  H     -0.000000   -1.608845    2.017987
  C      0.000000   -1.323887    0.972558
  H      0.000000    1.439902   -1.949075
  C      0.000000    0.770632   -1.092548
  H     -0.000000   -1.439902   -1.949075
  C     -0.000000   -0.770632   -1.092548
  H     -2.049820    1.283929   -0.013650
  C     -1.070630    0.812534    0.058161
  H     -2.049820   -1.283929   -0.013650
  C     -1.070630   -0.812534    0.058161

 Multiplicity           Mult            ....    3
 Number of Electrons    NEL             ....   56
 Basis Dimension        Dim             ....  296

ORBITAL ENERGIES
----------------
                 SPIN UP ORBITALS
  NO   OCC          E(Eh)            E(eV)    Irrep
   0   1.0000     -10.178537      -276.9721    1-A1
   1   1.0000     -10.178519      -276.9716    1-B1
   2   1.0000     -10.178422      -276.9689    1-B2
   3   1.0000     -10.178408      -276.9686    1-A2
   4   1.0000     -10.175668      -276.8940    2-B2
   5   1.0000     -10.175647      -276.8934    2-A1
   6   1.0000     -10.173333      -276.8305    3-A1
   7   1.0000     -10.173148      -276.8254    3-B2
   8   1.0000      -0.927826       -25.2474    4-A1
   9   1.0000      -0.784105       -21.3366    4-B2
  10   1.0000      -0.712334       -19.3836    2-B1
  11   1.0000      -0.696053       -18.9406    5-A1
  12   1.0000      -0.584441       -15.9035    5-B2
  13   1.0000      -0.577449       -15.7132    2-A2
  14   1.0000      -0.558220       -15.1900    6-A1
  15   1.0000      -0.528841       -14.3905    7-A1
  16   1.0000      -0.476309       -12.9610    6-B2
  17   1.0000      -0.466408       -12.6916    8-A1
  18   1.0000      -0.453190       -12.3319    7-B2
  19   1.0000      -0.427656       -11.6371    3-B1
  20   1.0000      -0.393521       -10.7082    9-A1
  21   1.0000      -0.381694       -10.3864    4-B1
  22   1.0000      -0.321262        -8.7420    3-A2
  23   1.0000      -0.313962        -8.5433    5-B1
  24   1.0000      -0.287717        -7.8292    8-B2
  25   1.0000      -0.287649        -7.8273   10-A1
  26   1.0000      -0.265777        -7.2321    4-A2
  27   1.0000      -0.213632        -5.8132    9-B2
  28   1.0000      -0.170718        -4.6455   11-A1
  29   0.0000       0.046690         1.2705   12-A1
  30   0.0000       0.050472         1.3734   13-A1
  31   0.0000       0.053009         1.4424    6-B1
  32   0.0000       0.084076         2.2878   10-B2
  33   0.0000       0.090195         2.4543   14-A1

                 SPIN DOWN ORBITALS
  NO   OCC          E(Eh)            E(eV)    Irrep
   0   1.0000     -10.177753      -276.9507    1-A1
   1   1.0000     -10.177747      -276.9506    1-B1
   2   1.0000     -10.177644      -276.9478    1-B2
   3   1.0000     -10.177643      -276.9477    1-A2
   4   1.0000     -10.172576      -276.8099    2-A1
   5   1.0000     -10.172393      -276.8049    2-B2
   6   1.0000     -10.162119      -276.5253    3-B2
   7   1.0000     -10.162103      -276.5249    3-A1
   8   1.0000      -0.918865       -25.0036    4-A1
   9   1.0000      -0.766841       -20.8668    4-B2
  10   1.0000      -0.706356       -19.2209    2-B1
  11   1.0000      -0.678992       -18.4763    5-A1
  12   1.0000      -0.573896       -15.6165    2-A2
  13   1.0000      -0.568027       -15.4568    5-B2
  14   1.0000      -0.543183       -14.7808    6-A1
  15   1.0000      -0.523091       -14.2340    7-A1
  16   1.0000      -0.469010       -12.7624    6-B2
  17   1.0000      -0.453411       -12.3379    8-A1
  18   1.0000      -0.448522       -12.2049    7-B2
  19   1.0000      -0.423783       -11.5317    3-B1
  20   1.0000      -0.375261       -10.2114    4-B1
  21   1.0000      -0.371461       -10.1080    9-A1
  22   1.0000      -0.312817        -8.5122    3-A2
  23   1.0000      -0.303910        -8.2698    5-B1
  24   1.0000      -0.281759        -7.6670    8-B2
  25   1.0000      -0.281325        -7.6552   10-A1
  26   1.0000      -0.264061        -7.1855    4-A2
  27   0.0000      -0.069933        -1.9030    9-B2
  28   0.0000      -0.042483        -1.1560   11-A1
  29   0.0000       0.051708         1.4071   12-A1
  30   0.0000       0.053382         1.4526   13-A1
  31   0.0000       0.053956         1.4682    6-B1

MULLIKEN ATOMIC CHARGES AND SPIN POPULATIONS
--------------------------------------------
   0 H :    0.089719    0.017548
   1 C :   -0.044058   -0.006779
   2 H :    0.089719    0.017548
   3 C :   -0.044058   -0.006779
   4 H :    0.108816   -0.023438
   5 C :   -0.172881    0.971321
   6 H :    0.108816   -0.023438
   7 C :   -0.172881    0.971322
   8 H :    0.090935    0.002550
   9 C :   -0.118192    0.028028
  10 H :    0.090935    0.002550
  11 C :   -0.118192    0.028028
  12 H :    0.089719    0.017548
  13 C :   -0.044058   -0.006779
  14 H :    0.089719    0.017548
  15 C :   -0.044058   -0.006779
Sum of atomic charges         :    0.0000000

LOEWDIN ATOMIC CHARGES AND SPIN POPULATIONS
-------------------------------------------
   0 H :    0.127659    0.010836
   1 C :   -0.146829    0.103427
   2 H :    0.127659    0.010836
   3 C :   -0.146829    0.103427
   4 H :    0.110144    0.006669
   5 C :   -0.077488    0.739852
   6 H :    0.110144    0.006669
   7 C :   -0.077488    0.739852
   8 H :    0.123687    0.001393
   9 C :   -0.118003    0.023560
  10 H :    0.123687    0.001393
  11 C :   -0.118003    0.023560
  12 H :    0.127659    0.010836
  13 C :   -0.146829    0.103427
  14 H :    0.127659    0.010836
  15 C :   -0.146829    0.103427

  Mayer bond orders larger than 0.1
B(  0-H ,  1-C ) :   0.9307 B(  1-C ,  3-C ) :   0.8972 B(  1-C ,  5-C ) :   1.0489
B(  1-C ,  9-C ) :   0.9787 B(  2-H ,  3-C ) :   0.9307 B(  3-C ,  7-C ) :   1.0489
B(  3-C , 11-C ) :   0.9787 B(  4-H ,  5-C ) :   0.9222 B(  5-C , 13-C ) :   1.0489
B(  6-H ,  7-C ) :   0.9222 B(  7-C , 15-C ) :   1.0489 B(  8-H ,  9-C ) :   0.9706
B(  9-C , 11-C ) :   0.9213 B(  9-C , 13-C ) :   0.9787 B( 10-H , 11-C ) :   0.9706
B( 11-C , 15-C ) :   0.9787 B( 12-H , 13-C ) :   0.9307 B( 13-C , 15-C ) :   0.8972
B( 14-H , 15-C ) :   0.9307

FINAL SINGLE POINT ENERGY      -309.296908090071

DIPOLE MOMENT
-------------
                                X             Y             Z
Electronic contribution:      0.00000       0.00000      -0.16292
Nuclear contribution   :     -0.00000      -0.00000       0.07838
                        -----------------------------------------
Total Dipole Moment    :     -0.00000      -0.00000      -0.08454
                        -----------------------------------------
Magnitude (a.u.)       :      0.08454
Magnitude (Debye)      :      0.21489

                             ****ORCA TERMINATED NORMALLY****
TOTAL RUN TIME: 0 days 0 hours 8 minutes 50 seconds 754 msec
