         Total SCF energy =   -307.414948577981
          Total MP2 energy          -308.482343627926
@ Step       Energy      Delta E   Gmax     Grms     Xrms     Xmax   Walltime
@ ---- ---------------- -------- -------- -------- -------- -------- --------
@    0    -308.48234363  0.0D+00  0.01018  0.00247  0.00000  0.00000    248.8
         Total SCF energy =   -307.413169332819
          Total MP2 energy          -308.483880656002
         Total SCF energy =   -307.413169332819
          Total MP2 energy          -308.483880656002
@    1    -308.48388066 -1.5D-03  0.00087  0.00025  0.01726  0.02349    563.0
         Total SCF energy =   -307.413023508525

 Vector   46  Occ=0.000000D+00  E= 4.942737D-01  Symmetry=a1g

 Vector   47  Occ=0.000000D+00  E= 5.214114D-01  Symmetry=eu

          Total MP2 energy          -308.483900394983
         Total SCF energy =   -307.412987752637

 Vector    9  Occ=2.000000D+00  E=-1.240440D+00  Symmetry=a1g

 Vector   10  Occ=2.000000D+00  E=-9.767226D-01  Symmetry=t1u

 Vector   11  Occ=2.000000D+00  E=-9.767226D-01  Symmetry=t1u

 Vector   12  Occ=2.000000D+00  E=-9.767226D-01  Symmetry=t1u

 Vector   13  Occ=2.000000D+00  E=-7.658668D-01  Symmetry=t2g

 Vector   14  Occ=2.000000D+00  E=-7.658668D-01  Symmetry=t2g

 Vector   15  Occ=2.000000D+00  E=-7.658668D-01  Symmetry=t2g

 Vector   16  Occ=2.000000D+00  E=-7.047633D-01  Symmetry=a1g

 Vector   17  Occ=2.000000D+00  E=-6.387727D-01  Symmetry=a2u

 Vector   18  Occ=2.000000D+00  E=-5.768288D-01  Symmetry=t1u

 Vector   19  Occ=2.000000D+00  E=-5.768288D-01  Symmetry=t1u

 Vector   20  Occ=2.000000D+00  E=-5.768288D-01  Symmetry=t1u

 Vector   21  Occ=2.000000D+00  E=-5.759821D-01  Symmetry=eg

 Vector   22  Occ=2.000000D+00  E=-5.759821D-01  Symmetry=eg

 Vector   23  Occ=2.000000D+00  E=-3.897295D-01  Symmetry=t2u

 Vector   24  Occ=2.000000D+00  E=-3.897295D-01  Symmetry=t2u

 Vector   25  Occ=2.000000D+00  E=-3.897295D-01  Symmetry=t2u

 Vector   26  Occ=2.000000D+00  E=-3.840525D-01  Symmetry=t2g

 Vector   27  Occ=2.000000D+00  E=-3.840525D-01  Symmetry=t2g

 Vector   28  Occ=2.000000D+00  E=-3.840525D-01  Symmetry=t2g

 Vector   29  Occ=0.000000D+00  E= 1.814015D-01  Symmetry=a1g

 Vector   30  Occ=0.000000D+00  E= 2.030939D-01  Symmetry=t1u

 Vector   31  Occ=0.000000D+00  E= 2.030939D-01  Symmetry=t1u

 Vector   32  Occ=0.000000D+00  E= 2.030939D-01  Symmetry=t1u

 Vector   33  Occ=0.000000D+00  E= 2.536140D-01  Symmetry=t2g

 Vector   34  Occ=0.000000D+00  E= 2.536140D-01  Symmetry=t2g

 Vector   35  Occ=0.000000D+00  E= 2.536140D-01  Symmetry=t2g

 Vector   36  Occ=0.000000D+00  E= 2.570225D-01  Symmetry=t1u

 Vector   37  Occ=0.000000D+00  E= 2.570225D-01  Symmetry=t1u

 Vector   38  Occ=0.000000D+00  E= 2.570225D-01  Symmetry=t1u

 Vector   39  Occ=0.000000D+00  E= 2.642576D-01  Symmetry=a2u

 Vector   40  Occ=0.000000D+00  E= 3.695829D-01  Symmetry=t1g

 Vector   41  Occ=0.000000D+00  E= 3.695829D-01  Symmetry=t1g

 Vector   42  Occ=0.000000D+00  E= 3.695829D-01  Symmetry=t1g

 Vector   43  Occ=0.000000D+00  E= 4.479324D-01  Symmetry=t2g

 Vector   44  Occ=0.000000D+00  E= 4.479324D-01  Symmetry=t2g

 Vector   45  Occ=0.000000D+00  E= 4.479324D-01  Symmetry=t2g

 Vector   46  Occ=0.000000D+00  E= 4.942745D-01  Symmetry=a1g

 Vector   47  Occ=0.000000D+00  E= 5.212283D-01  Symmetry=eu

          Total MP2 energy          -308.483901061174
@    2    -308.48390106 -2.0D-05  0.00002  0.00000  0.00129  0.00165    890.2
         Total SCF energy =   -307.412992933513

 Vector    9  Occ=2.000000D+00  E=-1.240446D+00  Symmetry=a1g

 Vector   10  Occ=2.000000D+00  E=-9.767269D-01  Symmetry=t1u

 Vector   11  Occ=2.000000D+00  E=-9.767269D-01  Symmetry=t1u

 Vector   12  Occ=2.000000D+00  E=-9.767269D-01  Symmetry=t1u

 Vector   13  Occ=2.000000D+00  E=-7.658729D-01  Symmetry=t2g

 Vector   14  Occ=2.000000D+00  E=-7.658729D-01  Symmetry=t2g

 Vector   15  Occ=2.000000D+00  E=-7.658729D-01  Symmetry=t2g

 Vector   16  Occ=2.000000D+00  E=-7.047728D-01  Symmetry=a1g

 Vector   17  Occ=2.000000D+00  E=-6.387808D-01  Symmetry=a2u

 Vector   18  Occ=2.000000D+00  E=-5.768354D-01  Symmetry=t1u

 Vector   19  Occ=2.000000D+00  E=-5.768354D-01  Symmetry=t1u

 Vector   20  Occ=2.000000D+00  E=-5.768354D-01  Symmetry=t1u

 Vector   21  Occ=2.000000D+00  E=-5.759847D-01  Symmetry=eg

 Vector   22  Occ=2.000000D+00  E=-5.759847D-01  Symmetry=eg

 Vector   23  Occ=2.000000D+00  E=-3.897297D-01  Symmetry=t2u

 Vector   24  Occ=2.000000D+00  E=-3.897297D-01  Symmetry=t2u

 Vector   25  Occ=2.000000D+00  E=-3.897297D-01  Symmetry=t2u

 Vector   26  Occ=2.000000D+00  E=-3.840525D-01  Symmetry=t2g

 Vector   27  Occ=2.000000D+00  E=-3.840525D-01  Symmetry=t2g

 Vector   28  Occ=2.000000D+00  E=-3.840525D-01  Symmetry=t2g

 Vector   29  Occ=0.000000D+00  E= 1.814062D-01  Symmetry=a1g

 Vector   30  Occ=0.000000D+00  E= 2.030958D-01  Symmetry=t1u

 Vector   31  Occ=0.000000D+00  E= 2.030958D-01  Symmetry=t1u

 Vector   32  Occ=0.000000D+00  E= 2.030958D-01  Symmetry=t1u

 Vector   33  Occ=0.000000D+00  E= 2.536160D-01  Symmetry=t2g

 Vector   34  Occ=0.000000D+00  E= 2.536160D-01  Symmetry=t2g

 Vector   35  Occ=0.000000D+00  E= 2.536160D-01  Symmetry=t2g

 Vector   36  Occ=0.000000D+00  E= 2.570262D-01  Symmetry=t1u

 Vector   37  Occ=0.000000D+00  E= 2.570262D-01  Symmetry=t1u

 Vector   38  Occ=0.000000D+00  E= 2.570262D-01  Symmetry=t1u

 Vector   39  Occ=0.000000D+00  E= 2.642620D-01  Symmetry=a2u

 Vector   40  Occ=0.000000D+00  E= 3.695869D-01  Symmetry=t1g

 Vector   41  Occ=0.000000D+00  E= 3.695869D-01  Symmetry=t1g

 Vector   42  Occ=0.000000D+00  E= 3.695869D-01  Symmetry=t1g

 Vector   43  Occ=0.000000D+00  E= 4.479373D-01  Symmetry=t2g

 Vector   44  Occ=0.000000D+00  E= 4.479373D-01  Symmetry=t2g

 Vector   45  Occ=0.000000D+00  E= 4.479373D-01  Symmetry=t2g

 Vector   46  Occ=0.000000D+00  E= 4.942775D-01  Symmetry=a1g

 Vector   47  Occ=0.000000D+00  E= 5.212338D-01  Symmetry=eu

       Multipole analysis of the density wrt the origin
       ------------------------------------------------

     L   x y z        total         open         nuclear
     -   - - -        -----         ----         -------
     0   0 0 0      0.000000      0.000000     56.000000

     1   1 0 0     -0.000000      0.000000      0.000000
     1   0 1 0     -0.000000      0.000000      0.000000
     1   0 0 1     -0.000000      0.000000      0.000000

     2   2 0 0    -35.231981      0.000000    164.353166
     2   1 1 0      0.000000      0.000000      0.000000
     2   1 0 1      0.000000      0.000000      0.000000
     2   0 2 0    -35.231981      0.000000    164.353166
     2   0 1 1     -0.000000      0.000000      0.000000

          Total MP2 energy          -308.483901065255
         Total SCF energy =   -307.412992933513
          Total MP2 energy          -308.483901065255
@    3    -308.48390107 -4.1D-09  0.00000  0.00000  0.00003  0.00004   1198.4
@    3    -308.48390107 -4.1D-09  0.00000  0.00000  0.00003  0.00004   1198.4

 Output coordinates in angstroms (scale by  1.889725989 to convert to a.u.)

  No.       Tag          Charge          X              Y              Z
 ---- ---------------- ---------- -------------- -------------- --------------
    1 H                    1.0000     1.42345400     1.42345400     1.42345400
    2 H                    1.0000    -1.42345400    -1.42345400     1.42345400
    3 H                    1.0000    -1.42345400     1.42345400    -1.42345400
    4 H                    1.0000     1.42345400    -1.42345400    -1.42345400
    5 H                    1.0000     1.42345400     1.42345400    -1.42345400
    6 H                    1.0000    -1.42345400    -1.42345400    -1.42345400
    7 H                    1.0000     1.42345400    -1.42345400     1.42345400
    8 H                    1.0000    -1.42345400     1.42345400     1.42345400
    9 C                    6.0000     0.78811233     0.78811233     0.78811233
   10 C                    6.0000    -0.78811233    -0.78811233     0.78811233
   11 C                    6.0000    -0.78811233     0.78811233    -0.78811233
   12 C                    6.0000     0.78811233    -0.78811233    -0.78811233
   13 C                    6.0000     0.78811233     0.78811233    -0.78811233
   14 C                    6.0000    -0.78811233    -0.78811233    -0.78811233
   15 C                    6.0000     0.78811233    -0.78811233     0.78811233
   16 C                    6.0000    -0.78811233     0.78811233     0.78811233

 Total times  cpu:     1196.8s     wall:     1198.5s
