                         Program Version 4.0.0 -  RELEASE  -
|  1> # ================================================================
|  2> # Orca input file for cubane B3LYP/def2-TZVP geometry optimization
|  3> # ================================================================
|  4> ! RHF B3LYP def2-TZVP TightSCF TightOPT UseSym
|  5> ! PAL4
|  6>
|  7> * xyz 0 1
|  8>   H      -1.423     -1.423     -1.423
|  9>   C      -0.788     -0.788     -0.788
| 10>   H      -1.423     -1.423      1.423
| 11>   C      -0.788     -0.788      0.788
| 12>   H      -1.423      1.423     -1.423
| 13>   C      -0.788      0.788     -0.788
| 14>   H       1.423     -1.423     -1.423
| 15>   C       0.788     -0.788     -0.788
| 16>   H      -1.423      1.423      1.423
| 17>   C      -0.788      0.788      0.788
| 18>   H       1.423     -1.423      1.423
| 19>   C       0.788     -0.788      0.788
| 20>   H       1.423      1.423     -1.423
| 21>   C       0.788      0.788     -0.788
| 22>   H       1.423      1.423      1.423
| 23>   C       0.788      0.788      0.788
| 24> *
| 25>
| 26>                          ****END OF INPUT****
 Total Charge           Charge          ....    0
 Multiplicity           Mult            ....    1
 Number of Electrons    NEL             ....   56
FINAL SINGLE POINT ENERGY      -309.356505487151
FINAL SINGLE POINT ENERGY      -309.357571338847
FINAL SINGLE POINT ENERGY      -309.357589289752
                    ***********************HURRAY********************

CARTESIAN COORDINATES (ANGSTROEM)
---------------------------------
  H     -1.412266    1.412266    1.412266
  C     -0.784205    0.784205    0.784205
  H     -1.412265   -1.412265    1.412265
  C     -0.784205   -0.784205    0.784205
  H      1.412265    1.412266    1.412266
  C      0.784205    0.784205    0.784205
  H     -1.412265    1.412265   -1.412265
  C     -0.784205    0.784205   -0.784205
  H      1.412266   -1.412265    1.412265
  C      0.784205   -0.784205    0.784205
  H     -1.412265   -1.412266   -1.412266
  C     -0.784205   -0.784205   -0.784205
  H      1.412266    1.412265   -1.412266
  C      0.784205    0.784205   -0.784205
  H      1.412266   -1.412266   -1.412266
  C      0.784205   -0.784205   -0.784205

 Multiplicity           Mult            ....    1
 Number of Electrons    NEL             ....   56
 Basis Dimension        Dim             ....  296

ORBITAL ENERGIES
----------------

  NO   OCC          E(Eh)            E(eV)    Irrep
   0   2.0000     -10.168181      -276.6903    1-Ag
   1   2.0000     -10.168031      -276.6862    1-B1u
   2   2.0000     -10.168031      -276.6862    1-B3u
   3   2.0000     -10.168031      -276.6862    1-B2u
   4   2.0000     -10.167876      -276.6820    1-B1g
   5   2.0000     -10.167876      -276.6820    1-B2g
   6   2.0000     -10.167876      -276.6820    1-B3g
   7   2.0000     -10.167715      -276.6776    1-Au
   8   2.0000      -0.940990       -25.6056    2-Ag
   9   2.0000      -0.721954       -19.6454    2-B3u
  10   2.0000      -0.721954       -19.6454    2-B1u
  11   2.0000      -0.721954       -19.6454    2-B2u
  12   2.0000      -0.556692       -15.1484    2-B2g
  13   2.0000      -0.556692       -15.1484    2-B1g
  14   2.0000      -0.556692       -15.1484    2-B3g
  15   2.0000      -0.531103       -14.4520    3-Ag
  16   2.0000      -0.462395       -12.5824    2-Au
  17   2.0000      -0.431208       -11.7338    4-Ag
  18   2.0000      -0.431208       -11.7338    5-Ag
  19   2.0000      -0.423117       -11.5136    3-B3u
  20   2.0000      -0.423117       -11.5136    3-B1u
  21   2.0000      -0.423117       -11.5136    3-B2u
  22   2.0000      -0.272738        -7.4216    4-B3u
  23   2.0000      -0.272738        -7.4216    4-B1u
  24   2.0000      -0.272738        -7.4216    4-B2u
  25   2.0000      -0.260427        -7.0866    3-B2g
  26   2.0000      -0.260427        -7.0866    3-B1g
  27   2.0000      -0.260427        -7.0866    3-B3g
  28   0.0000       0.040882         1.1125    5-B1u
  29   0.0000       0.040882         1.1125    5-B2u
  30   0.0000       0.040882         1.1125    5-B3u
  31   0.0000       0.047472         1.2918    6-Ag
  32   0.0000       0.100979         2.7478    4-B1g

MULLIKEN ATOMIC CHARGES
-----------------------
   0 H :    0.087516
   1 C :   -0.087516
   2 H :    0.087516
   3 C :   -0.087516
   4 H :    0.087516
   5 C :   -0.087516
   6 H :    0.087516
   7 C :   -0.087516
   8 H :    0.087516
   9 C :   -0.087516
  10 H :    0.087516
  11 C :   -0.087516
  12 H :    0.087516
  13 C :   -0.087516
  14 H :    0.087516
  15 C :   -0.087516
Sum of atomic charges:   -0.0000000

LOEWDIN ATOMIC CHARGES
----------------------
   0 H :    0.119875
   1 C :   -0.119875
   2 H :    0.119875
   3 C :   -0.119875
   4 H :    0.119875
   5 C :   -0.119875
   6 H :    0.119875
   7 C :   -0.119875
   8 H :    0.119875
   9 C :   -0.119875
  10 H :    0.119875
  11 C :   -0.119875
  12 H :    0.119875
  13 C :   -0.119875
  14 H :    0.119875
  15 C :   -0.119875

  Mayer bond orders larger than 0.1
B(  0-H ,  1-C ) :   0.9505 B(  1-C ,  3-C ) :   0.9177 B(  1-C ,  5-C ) :   0.9177
B(  1-C ,  7-C ) :   0.9177 B(  2-H ,  3-C ) :   0.9505 B(  3-C ,  9-C ) :   0.9177
B(  3-C , 11-C ) :   0.9177 B(  4-H ,  5-C ) :   0.9505 B(  5-C ,  9-C ) :   0.9177
B(  5-C , 13-C ) :   0.9177 B(  6-H ,  7-C ) :   0.9505 B(  7-C , 11-C ) :   0.9177
B(  7-C , 13-C ) :   0.9177 B(  8-H ,  9-C ) :   0.9505 B(  9-C , 15-C ) :   0.9177
B( 10-H , 11-C ) :   0.9505 B( 11-C , 15-C ) :   0.9177 B( 12-H , 13-C ) :   0.9505
B( 13-C , 15-C ) :   0.9177 B( 14-H , 15-C ) :   0.9505

FINAL SINGLE POINT ENERGY      -309.357589948912

DIPOLE MOMENT
-------------
                                X             Y             Z
Electronic contribution:      0.00000       0.00000       0.00000
Nuclear contribution   :     -0.00000       0.00000      -0.00000
                        -----------------------------------------
Total Dipole Moment    :     -0.00000       0.00000      -0.00000
                        -----------------------------------------
Magnitude (a.u.)       :      0.00000
Magnitude (Debye)      :      0.00000

                             ****ORCA TERMINATED NORMALLY****
TOTAL RUN TIME: 0 days 0 hours 7 minutes 15 seconds 873 msec
