         Total SCF energy =   -307.412398303394
 CCSD total energy / hartree       =      -308.543106245432057
         Total SCF energy =   -307.412242480702
 CCSD total energy / hartree       =      -308.543099508163778
         Total SCF energy =   -307.412539291018
 CCSD total energy / hartree       =      -308.543098770943686
         Total SCF energy =   -307.412242480714
 CCSD total energy / hartree       =      -308.543099508176283
         Total SCF energy =   -307.412539291010
 CCSD total energy / hartree       =      -308.543098770935103
         Total SCF energy =   -307.412242480722
 CCSD total energy / hartree       =      -308.543099508184866
         Total SCF energy =   -307.412539290995
 CCSD total energy / hartree       =      -308.543098770918334
         Total SCF energy =   -307.412248808027
 CCSD total energy / hartree       =      -308.543074444586068
         Total SCF energy =   -307.412481567077
 CCSD total energy / hartree       =      -308.543074155876980
         Total SCF energy =   -307.412248808024
 CCSD total energy / hartree       =      -308.543074444583056
         Total SCF energy =   -307.412481567071
 CCSD total energy / hartree       =      -308.543074155870556
         Total SCF energy =   -307.412248805574
 CCSD total energy / hartree       =      -308.543074442105649
         Total SCF energy =   -307.412481563848
 CCSD total energy / hartree       =      -308.543074152637246
@ Step       Energy      Delta E   Gmax     Grms     Xrms     Xmax   Walltime
@ ---- ---------------- -------- -------- -------- -------- -------- --------
@    0    -308.54310625  0.0D+00  0.00002  0.00001  0.00000  0.00000  18553.0
         Total SCF energy =   -307.412387344081
 CCSD total energy / hartree       =      -308.543106245092815
         Total SCF energy =   -307.412387344081
 CCSD total energy / hartree       =      -308.543106245092815
         Total SCF energy =   -307.412231132689
 CCSD total energy / hartree       =      -308.543099131591873
         Total SCF energy =   -307.412528722302
 CCSD total energy / hartree       =      -308.543099165859758
         Total SCF energy =   -307.412231132691
 CCSD total energy / hartree       =      -308.543099131591816
         Total SCF energy =   -307.412528722312
 CCSD total energy / hartree       =      -308.543099165868227
         Total SCF energy =   -307.412231132611
 CCSD total energy / hartree       =      -308.543099131513884
         Total SCF energy =   -307.412528722270
 CCSD total energy / hartree       =      -308.543099165825254
         Total SCF energy =   -307.412237820412
 CCSD total energy / hartree       =      -308.543074431146579
         Total SCF energy =   -307.412470645608
 CCSD total energy / hartree       =      -308.543074195294935
         Total SCF energy =   -307.412237820398
 CCSD total energy / hartree       =      -308.543074431130890
         Total SCF energy =   -307.412470645623

 Vector   46  Occ=0.000000D+00  E= 4.940913D-01  Symmetry=ag

 Vector   47  Occ=0.000000D+00  E= 5.198851D-01  Symmetry=au

 CCSD total energy / hartree       =      -308.543074195309885
         Total SCF energy =   -307.412237817506

 Vector    9  Occ=2.000000D+00  E=-1.236431D+00  Symmetry=ag

 Vector   10  Occ=2.000000D+00  E=-9.759639D-01  Symmetry=b1u

 Vector   11  Occ=2.000000D+00  E=-9.743719D-01  Symmetry=b2u

 Vector   12  Occ=2.000000D+00  E=-9.743719D-01  Symmetry=b3u

 Vector   13  Occ=2.000000D+00  E=-7.664430D-01  Symmetry=b3g

 Vector   14  Occ=2.000000D+00  E=-7.664430D-01  Symmetry=b2g

 Vector   15  Occ=2.000000D+00  E=-7.654535D-01  Symmetry=b1g

 Vector   16  Occ=2.000000D+00  E=-7.039665D-01  Symmetry=ag

 Vector   17  Occ=2.000000D+00  E=-6.401112D-01  Symmetry=au

 Vector   18  Occ=2.000000D+00  E=-5.772563D-01  Symmetry=b1u

 Vector   19  Occ=2.000000D+00  E=-5.761247D-01  Symmetry=b2u

 Vector   20  Occ=2.000000D+00  E=-5.761247D-01  Symmetry=b3u

 Vector   21  Occ=2.000000D+00  E=-5.737888D-01  Symmetry=ag

 Vector   22  Occ=2.000000D+00  E=-5.736526D-01  Symmetry=ag

 Vector   23  Occ=2.000000D+00  E=-3.897569D-01  Symmetry=b1u

 Vector   24  Occ=2.000000D+00  E=-3.883825D-01  Symmetry=b2u

 Vector   25  Occ=2.000000D+00  E=-3.883825D-01  Symmetry=b3u

 Vector   26  Occ=2.000000D+00  E=-3.848949D-01  Symmetry=b3g

 Vector   27  Occ=2.000000D+00  E=-3.848949D-01  Symmetry=b2g

 Vector   28  Occ=2.000000D+00  E=-3.827127D-01  Symmetry=b1g

 Vector   29  Occ=0.000000D+00  E= 1.819939D-01  Symmetry=ag

 Vector   30  Occ=0.000000D+00  E= 2.018700D-01  Symmetry=b1u

 Vector   31  Occ=0.000000D+00  E= 2.027754D-01  Symmetry=b2u

 Vector   32  Occ=0.000000D+00  E= 2.027754D-01  Symmetry=b3u

 Vector   33  Occ=0.000000D+00  E= 2.532919D-01  Symmetry=b1g

 Vector   34  Occ=0.000000D+00  E= 2.533486D-01  Symmetry=b3g

 Vector   35  Occ=0.000000D+00  E= 2.533486D-01  Symmetry=b2g

 Vector   36  Occ=0.000000D+00  E= 2.562564D-01  Symmetry=b1u

 Vector   37  Occ=0.000000D+00  E= 2.573729D-01  Symmetry=b2u

 Vector   38  Occ=0.000000D+00  E= 2.573729D-01  Symmetry=b3u

 Vector   39  Occ=0.000000D+00  E= 2.640265D-01  Symmetry=au

 Vector   40  Occ=0.000000D+00  E= 3.674359D-01  Symmetry=b3g

 Vector   41  Occ=0.000000D+00  E= 3.674359D-01  Symmetry=b2g

 Vector   42  Occ=0.000000D+00  E= 3.688192D-01  Symmetry=b1g

 Vector   43  Occ=0.000000D+00  E= 4.462391D-01  Symmetry=b3g

 Vector   44  Occ=0.000000D+00  E= 4.462391D-01  Symmetry=b2g

 Vector   45  Occ=0.000000D+00  E= 4.475196D-01  Symmetry=b1g

 Vector   46  Occ=0.000000D+00  E= 4.941966D-01  Symmetry=ag

 Vector   47  Occ=0.000000D+00  E= 5.184426D-01  Symmetry=au

 CCSD total energy / hartree       =      -308.543074428220621
         Total SCF energy =   -307.412470642624

 Vector    9  Occ=2.000000D+00  E=-1.238904D+00  Symmetry=ag

 Vector   10  Occ=2.000000D+00  E=-9.764725D-01  Symmetry=b2u

 Vector   11  Occ=2.000000D+00  E=-9.764725D-01  Symmetry=b3u

 Vector   12  Occ=2.000000D+00  E=-9.748683D-01  Symmetry=b1u

 Vector   13  Occ=2.000000D+00  E=-7.662700D-01  Symmetry=b1g

 Vector   14  Occ=2.000000D+00  E=-7.652681D-01  Symmetry=b3g

 Vector   15  Occ=2.000000D+00  E=-7.652681D-01  Symmetry=b2g

 Vector   16  Occ=2.000000D+00  E=-7.040007D-01  Symmetry=ag

 Vector   17  Occ=2.000000D+00  E=-6.387241D-01  Symmetry=au

 Vector   18  Occ=2.000000D+00  E=-5.767459D-01  Symmetry=b2u

 Vector   19  Occ=2.000000D+00  E=-5.767459D-01  Symmetry=b3u

 Vector   20  Occ=2.000000D+00  E=-5.756127D-01  Symmetry=b1u

 Vector   21  Occ=2.000000D+00  E=-5.752262D-01  Symmetry=ag

 Vector   22  Occ=2.000000D+00  E=-5.750877D-01  Symmetry=ag

 Vector   23  Occ=2.000000D+00  E=-3.899150D-01  Symmetry=b2u

 Vector   24  Occ=2.000000D+00  E=-3.899150D-01  Symmetry=b3u

 Vector   25  Occ=2.000000D+00  E=-3.885322D-01  Symmetry=b1u

 Vector   26  Occ=2.000000D+00  E=-3.855386D-01  Symmetry=b1g

 Vector   27  Occ=2.000000D+00  E=-3.833563D-01  Symmetry=b3g

 Vector   28  Occ=2.000000D+00  E=-3.833563D-01  Symmetry=b2g

 Vector   29  Occ=0.000000D+00  E= 1.813143D-01  Symmetry=ag

 Vector   30  Occ=0.000000D+00  E= 2.025062D-01  Symmetry=b2u

 Vector   31  Occ=0.000000D+00  E= 2.025062D-01  Symmetry=b3u

 Vector   32  Occ=0.000000D+00  E= 2.033895D-01  Symmetry=b1u

 Vector   33  Occ=0.000000D+00  E= 2.533847D-01  Symmetry=b3g

 Vector   34  Occ=0.000000D+00  E= 2.533847D-01  Symmetry=b2g

 Vector   35  Occ=0.000000D+00  E= 2.534410D-01  Symmetry=b1g

 Vector   36  Occ=0.000000D+00  E= 2.564439D-01  Symmetry=b2u

 Vector   37  Occ=0.000000D+00  E= 2.564439D-01  Symmetry=b3u

 Vector   38  Occ=0.000000D+00  E= 2.575854D-01  Symmetry=b1u

 Vector   39  Occ=0.000000D+00  E= 2.639802D-01  Symmetry=au

 Vector   40  Occ=0.000000D+00  E= 3.679314D-01  Symmetry=b1g

 Vector   41  Occ=0.000000D+00  E= 3.693128D-01  Symmetry=b3g

 Vector   42  Occ=0.000000D+00  E= 3.693128D-01  Symmetry=b2g

 Vector   43  Occ=0.000000D+00  E= 4.464187D-01  Symmetry=b1g

 Vector   44  Occ=0.000000D+00  E= 4.477043D-01  Symmetry=b3g

 Vector   45  Occ=0.000000D+00  E= 4.477043D-01  Symmetry=b2g

 Vector   46  Occ=0.000000D+00  E= 4.940913D-01  Symmetry=ag

 Vector   47  Occ=0.000000D+00  E= 5.198851D-01  Symmetry=au

       Multipole analysis of the density wrt the origin
       ------------------------------------------------

     L   x y z        total         open         nuclear
     -   - - -        -----         ----         -------
     0   0 0 0      0.000000      0.000000     56.000000

     1   1 0 0     -0.000000      0.000000      0.000000
     1   0 1 0      0.000000      0.000000      0.000000
     1   0 0 1     -0.000000      0.000000      0.000000

     2   2 0 0    -35.239801      0.000000    164.888013
     2   1 1 0     -0.000000      0.000000      0.000000
     2   1 0 1      0.000000      0.000000      0.000000
     2   0 2 0    -35.239801      0.000000    164.888013
     2   0 1 1     -0.000000      0.000000      0.000000

 CCSD total energy / hartree       =      -308.543074192283882
@    1    -308.54310625  3.4D-10  0.00000  0.00000  0.00005  0.00007  33709.3
@    1    -308.54310625  3.4D-10  0.00000  0.00000  0.00005  0.00007  33709.3

 Output coordinates in angstroms (scale by  1.889725989 to convert to a.u.)

  No.       Tag          Charge          X              Y              Z
 ---- ---------------- ---------- -------------- -------------- --------------
    1 H                    1.0000     1.42503470     1.42503470     1.42503472
    2 H                    1.0000    -1.42503470    -1.42503470     1.42503472
    3 H                    1.0000    -1.42503470     1.42503470    -1.42503472
    4 H                    1.0000     1.42503470    -1.42503470    -1.42503472
    5 H                    1.0000    -1.42503470    -1.42503470    -1.42503472
    6 H                    1.0000     1.42503470     1.42503470    -1.42503472
    7 H                    1.0000     1.42503470    -1.42503470     1.42503472
    8 H                    1.0000    -1.42503470     1.42503470     1.42503472
    9 C                    6.0000     0.78961438     0.78961438     0.78961439
   10 C                    6.0000    -0.78961438    -0.78961438     0.78961439
   11 C                    6.0000    -0.78961438     0.78961438    -0.78961439
   12 C                    6.0000     0.78961438    -0.78961438    -0.78961439
   13 C                    6.0000    -0.78961438    -0.78961438    -0.78961439
   14 C                    6.0000     0.78961438     0.78961438    -0.78961439
   15 C                    6.0000     0.78961438    -0.78961438     0.78961439
   16 C                    6.0000    -0.78961438     0.78961438     0.78961439

 Total times  cpu:    29172.7s     wall:    33709.5s
