         Total SCF energy =   -307.418404754494
          Total MP2 energy          -308.779876040010
@ Step       Energy      Delta E   Gmax     Grms     Xrms     Xmax   Walltime
@ ---- ---------------- -------- -------- -------- -------- -------- --------
@    0    -308.77987604  0.0D+00  0.00896  0.00208  0.00000  0.00000    266.1
         Total SCF energy =   -307.417062124031

 Vector   46  Occ=0.000000D+00  E= 4.939111D-01  Symmetry=a1g

 Vector   47  Occ=0.000000D+00  E= 5.232912D-01  Symmetry=eu

          Total MP2 energy          -308.780942575951
         Total SCF energy =   -307.417062124031
          Total MP2 energy          -308.780942575951
@    1    -308.78094258 -1.1D-03  0.00060  0.00018  0.01408  0.01938    656.8
         Total SCF energy =   -307.416997470010

 Vector    9  Occ=2.000000D+00  E=-1.243272D+00  Symmetry=a1g

 Vector   10  Occ=2.000000D+00  E=-9.781743D-01  Symmetry=t1u

 Vector   11  Occ=2.000000D+00  E=-9.781743D-01  Symmetry=t1u

 Vector   12  Occ=2.000000D+00  E=-9.781743D-01  Symmetry=t1u

 Vector   13  Occ=2.000000D+00  E=-7.663298D-01  Symmetry=t2g

 Vector   14  Occ=2.000000D+00  E=-7.663298D-01  Symmetry=t2g

 Vector   15  Occ=2.000000D+00  E=-7.663298D-01  Symmetry=t2g

 Vector   16  Occ=2.000000D+00  E=-7.062674D-01  Symmetry=a1g

 Vector   17  Occ=2.000000D+00  E=-6.388017D-01  Symmetry=a2u

 Vector   18  Occ=2.000000D+00  E=-5.778419D-01  Symmetry=t1u

 Vector   19  Occ=2.000000D+00  E=-5.778419D-01  Symmetry=t1u

 Vector   20  Occ=2.000000D+00  E=-5.778419D-01  Symmetry=t1u

 Vector   21  Occ=2.000000D+00  E=-5.778025D-01  Symmetry=eg

 Vector   22  Occ=2.000000D+00  E=-5.778025D-01  Symmetry=eg

 Vector   23  Occ=2.000000D+00  E=-3.906106D-01  Symmetry=t2u

 Vector   24  Occ=2.000000D+00  E=-3.906106D-01  Symmetry=t2u

 Vector   25  Occ=2.000000D+00  E=-3.906106D-01  Symmetry=t2u

 Vector   26  Occ=2.000000D+00  E=-3.842928D-01  Symmetry=t2g

 Vector   27  Occ=2.000000D+00  E=-3.842928D-01  Symmetry=t2g

 Vector   28  Occ=2.000000D+00  E=-3.842928D-01  Symmetry=t2g

 Vector   29  Occ=0.000000D+00  E= 1.811170D-01  Symmetry=a1g

 Vector   30  Occ=0.000000D+00  E= 2.028160D-01  Symmetry=t1u

 Vector   31  Occ=0.000000D+00  E= 2.028160D-01  Symmetry=t1u

 Vector   32  Occ=0.000000D+00  E= 2.028160D-01  Symmetry=t1u

 Vector   33  Occ=0.000000D+00  E= 2.537223D-01  Symmetry=t2g

 Vector   34  Occ=0.000000D+00  E= 2.537223D-01  Symmetry=t2g

 Vector   35  Occ=0.000000D+00  E= 2.537223D-01  Symmetry=t2g

 Vector   36  Occ=0.000000D+00  E= 2.570271D-01  Symmetry=t1u

 Vector   37  Occ=0.000000D+00  E= 2.570271D-01  Symmetry=t1u

 Vector   38  Occ=0.000000D+00  E= 2.570271D-01  Symmetry=t1u

 Vector   39  Occ=0.000000D+00  E= 2.591010D-01  Symmetry=a2u

 Vector   40  Occ=0.000000D+00  E= 3.705919D-01  Symmetry=t1g

 Vector   41  Occ=0.000000D+00  E= 3.705919D-01  Symmetry=t1g

 Vector   42  Occ=0.000000D+00  E= 3.705919D-01  Symmetry=t1g

 Vector   43  Occ=0.000000D+00  E= 4.408179D-01  Symmetry=t2g

 Vector   44  Occ=0.000000D+00  E= 4.408179D-01  Symmetry=t2g

 Vector   45  Occ=0.000000D+00  E= 4.408179D-01  Symmetry=t2g

 Vector   46  Occ=0.000000D+00  E= 4.939218D-01  Symmetry=a1g

 Vector   47  Occ=0.000000D+00  E= 5.227301D-01  Symmetry=eu

          Total MP2 energy          -308.780952588751
         Total SCF energy =   -307.416979913783

 Vector    9  Occ=2.000000D+00  E=-1.243046D+00  Symmetry=a1g

 Vector   10  Occ=2.000000D+00  E=-9.780755D-01  Symmetry=t1u

 Vector   11  Occ=2.000000D+00  E=-9.780755D-01  Symmetry=t1u

 Vector   12  Occ=2.000000D+00  E=-9.780755D-01  Symmetry=t1u

 Vector   13  Occ=2.000000D+00  E=-7.663611D-01  Symmetry=t2g

 Vector   14  Occ=2.000000D+00  E=-7.663611D-01  Symmetry=t2g

 Vector   15  Occ=2.000000D+00  E=-7.663611D-01  Symmetry=t2g

 Vector   16  Occ=2.000000D+00  E=-7.062452D-01  Symmetry=a1g

 Vector   17  Occ=2.000000D+00  E=-6.389046D-01  Symmetry=a2u

 Vector   18  Occ=2.000000D+00  E=-5.778403D-01  Symmetry=t1u

 Vector   19  Occ=2.000000D+00  E=-5.778403D-01  Symmetry=t1u

 Vector   20  Occ=2.000000D+00  E=-5.778403D-01  Symmetry=t1u

 Vector   21  Occ=2.000000D+00  E=-5.776728D-01  Symmetry=eg

 Vector   22  Occ=2.000000D+00  E=-5.776728D-01  Symmetry=eg

 Vector   23  Occ=2.000000D+00  E=-3.905574D-01  Symmetry=t2u

 Vector   24  Occ=2.000000D+00  E=-3.905574D-01  Symmetry=t2u

 Vector   25  Occ=2.000000D+00  E=-3.905574D-01  Symmetry=t2u

 Vector   26  Occ=2.000000D+00  E=-3.843002D-01  Symmetry=t2g

 Vector   27  Occ=2.000000D+00  E=-3.843002D-01  Symmetry=t2g

 Vector   28  Occ=2.000000D+00  E=-3.843002D-01  Symmetry=t2g

 Vector   29  Occ=0.000000D+00  E= 1.811659D-01  Symmetry=a1g

 Vector   30  Occ=0.000000D+00  E= 2.027845D-01  Symmetry=t1u

 Vector   31  Occ=0.000000D+00  E= 2.027845D-01  Symmetry=t1u

 Vector   32  Occ=0.000000D+00  E= 2.027845D-01  Symmetry=t1u

 Vector   33  Occ=0.000000D+00  E= 2.537120D-01  Symmetry=t2g

 Vector   34  Occ=0.000000D+00  E= 2.537120D-01  Symmetry=t2g

 Vector   35  Occ=0.000000D+00  E= 2.537120D-01  Symmetry=t2g

 Vector   36  Occ=0.000000D+00  E= 2.570353D-01  Symmetry=t1u

 Vector   37  Occ=0.000000D+00  E= 2.570353D-01  Symmetry=t1u

 Vector   38  Occ=0.000000D+00  E= 2.570353D-01  Symmetry=t1u

 Vector   39  Occ=0.000000D+00  E= 2.590954D-01  Symmetry=a2u

 Vector   40  Occ=0.000000D+00  E= 3.705015D-01  Symmetry=t1g

 Vector   41  Occ=0.000000D+00  E= 3.705015D-01  Symmetry=t1g

 Vector   42  Occ=0.000000D+00  E= 3.705015D-01  Symmetry=t1g

 Vector   43  Occ=0.000000D+00  E= 4.407651D-01  Symmetry=t2g

 Vector   44  Occ=0.000000D+00  E= 4.407651D-01  Symmetry=t2g

 Vector   45  Occ=0.000000D+00  E= 4.407651D-01  Symmetry=t2g

 Vector   46  Occ=0.000000D+00  E= 4.939244D-01  Symmetry=a1g

 Vector   47  Occ=0.000000D+00  E= 5.225955D-01  Symmetry=eu

       Multipole analysis of the density wrt the origin
       ------------------------------------------------

     L   x y z        total         open         nuclear
     -   - - -        -----         ----         -------
     0   0 0 0      0.000000      0.000000     56.000000

     1   1 0 0     -0.000000      0.000000      0.000000
     1   0 1 0     -0.000000      0.000000      0.000000
     1   0 0 1      0.000000      0.000000      0.000000

     2   2 0 0    -35.200430      0.000000    163.781751
     2   1 1 0      0.000000      0.000000      0.000000
     2   1 0 1     -0.000000      0.000000      0.000000
     2   0 2 0    -35.200430      0.000000    163.781751
     2   0 1 1     -0.000000      0.000000      0.000000

          Total MP2 energy          -308.780952975781
@    2    -308.78095298 -1.0D-05  0.00001  0.00000  0.00084  0.00113   1254.3
@    2    -308.78095298 -1.0D-05  0.00001  0.00000  0.00084  0.00113   1254.3

 Output coordinates in angstroms (scale by  1.889725989 to convert to a.u.)

  No.       Tag          Charge          X              Y              Z
 ---- ---------------- ---------- -------------- -------------- --------------
    1 H                    1.0000     1.42106234     1.42106234     1.42106234
    2 H                    1.0000    -1.42106234    -1.42106234     1.42106234
    3 H                    1.0000    -1.42106234     1.42106234    -1.42106234
    4 H                    1.0000     1.42106234    -1.42106234    -1.42106234
    5 H                    1.0000     1.42106234     1.42106234    -1.42106234
    6 H                    1.0000    -1.42106234    -1.42106234    -1.42106234
    7 H                    1.0000     1.42106234    -1.42106234     1.42106234
    8 H                    1.0000    -1.42106234     1.42106234     1.42106234
    9 C                    6.0000     0.78671552     0.78671552     0.78671552
   10 C                    6.0000    -0.78671552    -0.78671552     0.78671552
   11 C                    6.0000    -0.78671552     0.78671552    -0.78671552
   12 C                    6.0000     0.78671552    -0.78671552    -0.78671552
   13 C                    6.0000     0.78671552     0.78671552    -0.78671552
   14 C                    6.0000    -0.78671552    -0.78671552    -0.78671552
   15 C                    6.0000     0.78671552    -0.78671552     0.78671552
   16 C                    6.0000    -0.78671552     0.78671552     0.78671552

 Total times  cpu:     1117.7s     wall:     1255.2s
