         Total SCF energy =   -307.504558886396
          Total MP2 energy          -308.880258504357
@ Step       Energy      Delta E   Gmax     Grms     Xrms     Xmax   Walltime
@ ---- ---------------- -------- -------- -------- -------- -------- --------
@    0    -308.88025850  0.0D+00  0.00380  0.00081  0.00000  0.00000  14938.1
         Total SCF energy =   -307.505182402323
          Total MP2 energy          -308.880442242633
         Total SCF energy =   -307.505230262065
          Total MP2 energy          -308.880441801981
@    1    -308.88044180 -1.8D-04  0.00043  0.00009  0.00518  0.00732  34324.9
         Total SCF energy =   -307.505187376547

 Vector   79  Occ=0.000000D+00  E= 4.842261D-01  Symmetry=t2g

 Vector   80  Occ=0.000000D+00  E= 4.911781D-01  Symmetry=t1u

 Vector   81  Occ=0.000000D+00  E= 4.911781D-01  Symmetry=t1u

 Vector   82  Occ=0.000000D+00  E= 4.911781D-01  Symmetry=t1u

 Vector   83  Occ=0.000000D+00  E= 5.068662D-01  Symmetry=t2u

          Total MP2 energy          -308.880442344533
         Total SCF energy =   -307.505206254125

 Vector    9  Occ=2.000000D+00  E=-1.247760D+00  Symmetry=a1g

 Vector   10  Occ=2.000000D+00  E=-9.799508D-01  Symmetry=t1u

 Vector   11  Occ=2.000000D+00  E=-9.799508D-01  Symmetry=t1u

 Vector   12  Occ=2.000000D+00  E=-9.799508D-01  Symmetry=t1u

 Vector   13  Occ=2.000000D+00  E=-7.677029D-01  Symmetry=t2g

 Vector   14  Occ=2.000000D+00  E=-7.677029D-01  Symmetry=t2g

 Vector   15  Occ=2.000000D+00  E=-7.677029D-01  Symmetry=t2g

 Vector   16  Occ=2.000000D+00  E=-7.119040D-01  Symmetry=a1g

 Vector   17  Occ=2.000000D+00  E=-6.407430D-01  Symmetry=a2u

 Vector   18  Occ=2.000000D+00  E=-5.817825D-01  Symmetry=eg

 Vector   19  Occ=2.000000D+00  E=-5.817825D-01  Symmetry=eg

 Vector   20  Occ=2.000000D+00  E=-5.809941D-01  Symmetry=t1u

 Vector   21  Occ=2.000000D+00  E=-5.809941D-01  Symmetry=t1u

 Vector   22  Occ=2.000000D+00  E=-5.809941D-01  Symmetry=t1u

 Vector   23  Occ=2.000000D+00  E=-3.912319D-01  Symmetry=t2u

 Vector   24  Occ=2.000000D+00  E=-3.912319D-01  Symmetry=t2u

 Vector   25  Occ=2.000000D+00  E=-3.912319D-01  Symmetry=t2u

 Vector   26  Occ=2.000000D+00  E=-3.831291D-01  Symmetry=t2g

 Vector   27  Occ=2.000000D+00  E=-3.831291D-01  Symmetry=t2g

 Vector   28  Occ=2.000000D+00  E=-3.831291D-01  Symmetry=t2g

 Vector   29  Occ=0.000000D+00  E= 7.645860D-02  Symmetry=a1g

 Vector   30  Occ=0.000000D+00  E= 7.818430D-02  Symmetry=t1u

 Vector   31  Occ=0.000000D+00  E= 7.818430D-02  Symmetry=t1u

 Vector   32  Occ=0.000000D+00  E= 7.818430D-02  Symmetry=t1u

 Vector   33  Occ=0.000000D+00  E= 9.923555D-02  Symmetry=t2g

 Vector   34  Occ=0.000000D+00  E= 9.923555D-02  Symmetry=t2g

 Vector   35  Occ=0.000000D+00  E= 9.923555D-02  Symmetry=t2g

 Vector   36  Occ=0.000000D+00  E= 1.244983D-01  Symmetry=a2u

 Vector   37  Occ=0.000000D+00  E= 1.450917D-01  Symmetry=t1u

 Vector   38  Occ=0.000000D+00  E= 1.450917D-01  Symmetry=t1u

 Vector   39  Occ=0.000000D+00  E= 1.450917D-01  Symmetry=t1u

 Vector   40  Occ=0.000000D+00  E= 1.461516D-01  Symmetry=eg

 Vector   41  Occ=0.000000D+00  E= 1.461516D-01  Symmetry=eg

 Vector   42  Occ=0.000000D+00  E= 1.825044D-01  Symmetry=t2u

 Vector   43  Occ=0.000000D+00  E= 1.825044D-01  Symmetry=t2u

 Vector   44  Occ=0.000000D+00  E= 1.825044D-01  Symmetry=t2u

 Vector   45  Occ=0.000000D+00  E= 2.129948D-01  Symmetry=t2g

 Vector   46  Occ=0.000000D+00  E= 2.129948D-01  Symmetry=t2g

 Vector   47  Occ=0.000000D+00  E= 2.129948D-01  Symmetry=t2g

 Vector   48  Occ=0.000000D+00  E= 2.235376D-01  Symmetry=t1g

 Vector   49  Occ=0.000000D+00  E= 2.235376D-01  Symmetry=t1g

 Vector   50  Occ=0.000000D+00  E= 2.235376D-01  Symmetry=t1g

 Vector   51  Occ=0.000000D+00  E= 2.651536D-01  Symmetry=a1g

 Vector   52  Occ=0.000000D+00  E= 2.653692D-01  Symmetry=t1u

 Vector   53  Occ=0.000000D+00  E= 2.653692D-01  Symmetry=t1u

 Vector   54  Occ=0.000000D+00  E= 2.653692D-01  Symmetry=t1u

 Vector   55  Occ=0.000000D+00  E= 2.764576D-01  Symmetry=eu

 Vector   56  Occ=0.000000D+00  E= 2.764576D-01  Symmetry=eu

 Vector   57  Occ=0.000000D+00  E= 2.886204D-01  Symmetry=t1u

 Vector   58  Occ=0.000000D+00  E= 2.886204D-01  Symmetry=t1u

 Vector   59  Occ=0.000000D+00  E= 2.886204D-01  Symmetry=t1u

 Vector   60  Occ=0.000000D+00  E= 2.967250D-01  Symmetry=t2g

 Vector   61  Occ=0.000000D+00  E= 2.967250D-01  Symmetry=t2g

 Vector   62  Occ=0.000000D+00  E= 2.967250D-01  Symmetry=t2g

 Vector   63  Occ=0.000000D+00  E= 2.972386D-01  Symmetry=a1g

 Vector   64  Occ=0.000000D+00  E= 3.056678D-01  Symmetry=a2u

 Vector   65  Occ=0.000000D+00  E= 3.567052D-01  Symmetry=t1u

 Vector   66  Occ=0.000000D+00  E= 3.567052D-01  Symmetry=t1u

 Vector   67  Occ=0.000000D+00  E= 3.567052D-01  Symmetry=t1u

 Vector   68  Occ=0.000000D+00  E= 3.864498D-01  Symmetry=t1g

 Vector   69  Occ=0.000000D+00  E= 3.864498D-01  Symmetry=t1g

 Vector   70  Occ=0.000000D+00  E= 3.864498D-01  Symmetry=t1g

 Vector   71  Occ=0.000000D+00  E= 4.203872D-01  Symmetry=a1g

 Vector   72  Occ=0.000000D+00  E= 4.554223D-01  Symmetry=t2g

 Vector   73  Occ=0.000000D+00  E= 4.554223D-01  Symmetry=t2g

 Vector   74  Occ=0.000000D+00  E= 4.554223D-01  Symmetry=t2g

 Vector   75  Occ=0.000000D+00  E= 4.807315D-01  Symmetry=eg

 Vector   76  Occ=0.000000D+00  E= 4.807315D-01  Symmetry=eg

 Vector   77  Occ=0.000000D+00  E= 4.842768D-01  Symmetry=t2g

 Vector   78  Occ=0.000000D+00  E= 4.842768D-01  Symmetry=t2g

 Vector   79  Occ=0.000000D+00  E= 4.842768D-01  Symmetry=t2g

 Vector   80  Occ=0.000000D+00  E= 4.911821D-01  Symmetry=t1u

 Vector   81  Occ=0.000000D+00  E= 4.911821D-01  Symmetry=t1u

 Vector   82  Occ=0.000000D+00  E= 4.911821D-01  Symmetry=t1u

 Vector   83  Occ=0.000000D+00  E= 5.068842D-01  Symmetry=t2u

       Multipole analysis of the density wrt the origin
       ------------------------------------------------

     L   x y z        total         open         nuclear
     -   - - -        -----         ----         -------
     0   0 0 0      0.000000      0.000000     56.000000

     1   1 0 0      0.000000      0.000000      0.000000
     1   0 1 0      0.000000      0.000000      0.000000
     1   0 0 1      0.000000      0.000000      0.000000

     2   2 0 0    -34.916434      0.000000    161.093505
     2   1 1 0     -0.000000      0.000000      0.000000
     2   1 0 1     -0.000000      0.000000      0.000000
     2   0 2 0    -34.916434      0.000000    161.093505
     2   0 1 1     -0.000000      0.000000      0.000000

          Total MP2 energy          -308.880442643375
@    2    -308.88044264 -8.4D-07  0.00020  0.00004  0.00027  0.00038  51313.1
@    2    -308.88044264 -8.4D-07  0.00020  0.00004  0.00027  0.00038  51313.1

 Output coordinates in angstroms (scale by  1.889725989 to convert to a.u.)

  No.       Tag          Charge          X              Y              Z
 ---- ---------------- ---------- -------------- -------------- --------------
    1 H                    1.0000     1.40702490     1.40702490     1.40702490
    2 H                    1.0000    -1.40702490    -1.40702490     1.40702490
    3 H                    1.0000    -1.40702490     1.40702490    -1.40702490
    4 H                    1.0000     1.40702490    -1.40702490    -1.40702490
    5 H                    1.0000     1.40702490     1.40702490    -1.40702490
    6 H                    1.0000    -1.40702490    -1.40702490    -1.40702490
    7 H                    1.0000     1.40702490    -1.40702490     1.40702490
    8 H                    1.0000    -1.40702490     1.40702490     1.40702490
    9 C                    6.0000     0.78093200     0.78093200     0.78093200
   10 C                    6.0000    -0.78093200    -0.78093200     0.78093200
   11 C                    6.0000    -0.78093200     0.78093200    -0.78093200
   12 C                    6.0000     0.78093200    -0.78093200    -0.78093200
   13 C                    6.0000     0.78093200     0.78093200    -0.78093200
   14 C                    6.0000    -0.78093200    -0.78093200    -0.78093200
   15 C                    6.0000     0.78093200    -0.78093200     0.78093200
   16 C                    6.0000    -0.78093200     0.78093200     0.78093200

 Total times  cpu:    58027.0s     wall:    51313.1s
