         Total SCF energy =   -307.166623938188

 Vector   43  Occ=0.000000D+00  E= 4.680340D-01  Symmetry=t2g

 Vector   44  Occ=0.000000D+00  E= 4.680340D-01  Symmetry=t2g

 Vector   45  Occ=0.000000D+00  E= 4.680340D-01  Symmetry=t2g

 Vector   46  Occ=0.000000D+00  E= 5.040601D-01  Symmetry=a1g

@ Step       Energy      Delta E   Gmax     Grms     Xrms     Xmax   Walltime
@ ---- ---------------- -------- -------- -------- -------- -------- --------
@    0    -307.16662394  0.0D+00  0.00030  0.00008  0.00000  0.00000     20.2
         Total SCF energy =   -307.166625880930

 Vector    9  Occ=2.000000D+00  E=-1.251810D+00  Symmetry=a1g

 Vector   10  Occ=2.000000D+00  E=-9.776136D-01  Symmetry=t1u

 Vector   11  Occ=2.000000D+00  E=-9.776136D-01  Symmetry=t1u

 Vector   12  Occ=2.000000D+00  E=-9.776136D-01  Symmetry=t1u

 Vector   13  Occ=2.000000D+00  E=-7.616166D-01  Symmetry=t2g

 Vector   14  Occ=2.000000D+00  E=-7.616166D-01  Symmetry=t2g

 Vector   15  Occ=2.000000D+00  E=-7.616166D-01  Symmetry=t2g

 Vector   16  Occ=2.000000D+00  E=-7.144687D-01  Symmetry=a1g

 Vector   17  Occ=2.000000D+00  E=-6.354905D-01  Symmetry=a2u

 Vector   18  Occ=2.000000D+00  E=-5.895268D-01  Symmetry=eg

 Vector   19  Occ=2.000000D+00  E=-5.895268D-01  Symmetry=eg

 Vector   20  Occ=2.000000D+00  E=-5.859355D-01  Symmetry=t1u

 Vector   21  Occ=2.000000D+00  E=-5.859355D-01  Symmetry=t1u

 Vector   22  Occ=2.000000D+00  E=-5.859355D-01  Symmetry=t1u

 Vector   23  Occ=2.000000D+00  E=-3.985554D-01  Symmetry=t2u

 Vector   24  Occ=2.000000D+00  E=-3.985554D-01  Symmetry=t2u

 Vector   25  Occ=2.000000D+00  E=-3.985554D-01  Symmetry=t2u

 Vector   26  Occ=2.000000D+00  E=-3.885916D-01  Symmetry=t2g

 Vector   27  Occ=2.000000D+00  E=-3.885916D-01  Symmetry=t2g

 Vector   28  Occ=2.000000D+00  E=-3.885916D-01  Symmetry=t2g

 Vector   29  Occ=0.000000D+00  E= 1.832126D-01  Symmetry=a1g

 Vector   30  Occ=0.000000D+00  E= 2.124301D-01  Symmetry=t1u

 Vector   31  Occ=0.000000D+00  E= 2.124301D-01  Symmetry=t1u

 Vector   32  Occ=0.000000D+00  E= 2.124301D-01  Symmetry=t1u

 Vector   33  Occ=0.000000D+00  E= 2.575621D-01  Symmetry=t1u

 Vector   34  Occ=0.000000D+00  E= 2.575621D-01  Symmetry=t1u

 Vector   35  Occ=0.000000D+00  E= 2.575621D-01  Symmetry=t1u

 Vector   36  Occ=0.000000D+00  E= 2.584087D-01  Symmetry=t2g

 Vector   37  Occ=0.000000D+00  E= 2.584087D-01  Symmetry=t2g

 Vector   38  Occ=0.000000D+00  E= 2.584087D-01  Symmetry=t2g

 Vector   39  Occ=0.000000D+00  E= 2.728630D-01  Symmetry=a2u

 Vector   40  Occ=0.000000D+00  E= 3.730301D-01  Symmetry=t1g

 Vector   41  Occ=0.000000D+00  E= 3.730301D-01  Symmetry=t1g

 Vector   42  Occ=0.000000D+00  E= 3.730301D-01  Symmetry=t1g

 Vector   43  Occ=0.000000D+00  E= 4.678797D-01  Symmetry=t2g

 Vector   44  Occ=0.000000D+00  E= 4.678797D-01  Symmetry=t2g

 Vector   45  Occ=0.000000D+00  E= 4.678797D-01  Symmetry=t2g

 Vector   46  Occ=0.000000D+00  E= 5.039941D-01  Symmetry=a1g

         Total SCF energy =   -307.166625926716

 Vector    9  Occ=2.000000D+00  E=-1.251727D+00  Symmetry=a1g

 Vector   10  Occ=2.000000D+00  E=-9.775767D-01  Symmetry=t1u

 Vector   11  Occ=2.000000D+00  E=-9.775767D-01  Symmetry=t1u

 Vector   12  Occ=2.000000D+00  E=-9.775767D-01  Symmetry=t1u

 Vector   13  Occ=2.000000D+00  E=-7.616248D-01  Symmetry=t2g

 Vector   14  Occ=2.000000D+00  E=-7.616248D-01  Symmetry=t2g

 Vector   15  Occ=2.000000D+00  E=-7.616248D-01  Symmetry=t2g

 Vector   16  Occ=2.000000D+00  E=-7.144570D-01  Symmetry=a1g

 Vector   17  Occ=2.000000D+00  E=-6.355222D-01  Symmetry=a2u

 Vector   18  Occ=2.000000D+00  E=-5.894799D-01  Symmetry=eg

 Vector   19  Occ=2.000000D+00  E=-5.894799D-01  Symmetry=eg

 Vector   20  Occ=2.000000D+00  E=-5.859325D-01  Symmetry=t1u

 Vector   21  Occ=2.000000D+00  E=-5.859325D-01  Symmetry=t1u

 Vector   22  Occ=2.000000D+00  E=-5.859325D-01  Symmetry=t1u

 Vector   23  Occ=2.000000D+00  E=-3.985373D-01  Symmetry=t2u

 Vector   24  Occ=2.000000D+00  E=-3.985373D-01  Symmetry=t2u

 Vector   25  Occ=2.000000D+00  E=-3.985373D-01  Symmetry=t2u

 Vector   26  Occ=2.000000D+00  E=-3.885952D-01  Symmetry=t2g

 Vector   27  Occ=2.000000D+00  E=-3.885952D-01  Symmetry=t2g

 Vector   28  Occ=2.000000D+00  E=-3.885952D-01  Symmetry=t2g

 Vector   29  Occ=0.000000D+00  E= 1.832274D-01  Symmetry=a1g

 Vector   30  Occ=0.000000D+00  E= 2.124180D-01  Symmetry=t1u

 Vector   31  Occ=0.000000D+00  E= 2.124180D-01  Symmetry=t1u

 Vector   32  Occ=0.000000D+00  E= 2.124180D-01  Symmetry=t1u

 Vector   33  Occ=0.000000D+00  E= 2.575613D-01  Symmetry=t1u

 Vector   34  Occ=0.000000D+00  E= 2.575613D-01  Symmetry=t1u

 Vector   35  Occ=0.000000D+00  E= 2.575613D-01  Symmetry=t1u

 Vector   36  Occ=0.000000D+00  E= 2.584047D-01  Symmetry=t2g

 Vector   37  Occ=0.000000D+00  E= 2.584047D-01  Symmetry=t2g

 Vector   38  Occ=0.000000D+00  E= 2.584047D-01  Symmetry=t2g

 Vector   39  Occ=0.000000D+00  E= 2.728572D-01  Symmetry=a2u

 Vector   40  Occ=0.000000D+00  E= 3.729955D-01  Symmetry=t1g

 Vector   41  Occ=0.000000D+00  E= 3.729955D-01  Symmetry=t1g

 Vector   42  Occ=0.000000D+00  E= 3.729955D-01  Symmetry=t1g

 Vector   43  Occ=0.000000D+00  E= 4.678509D-01  Symmetry=t2g

 Vector   44  Occ=0.000000D+00  E= 4.678509D-01  Symmetry=t2g

 Vector   45  Occ=0.000000D+00  E= 4.678509D-01  Symmetry=t2g

 Vector   46  Occ=0.000000D+00  E= 5.039817D-01  Symmetry=a1g

       Multipole analysis of the density wrt the origin
       ------------------------------------------------

     L   x y z        total         open         nuclear
     -   - - -        -----         ----         -------
     0   0 0 0     -0.000000      0.000000     56.000000

     1   1 0 0     -0.000000      0.000000      0.000000
     1   0 1 0     -0.000000      0.000000      0.000000
     1   0 0 1      0.000000      0.000000      0.000000

     2   2 0 0    -35.208087      0.000000    160.746360
     2   1 1 0      0.000000      0.000000      0.000000
     2   1 0 1      0.000000      0.000000      0.000000
     2   0 2 0    -35.208087      0.000000    160.746360
     2   0 1 1     -0.000000      0.000000      0.000000

@    1    -307.16662593 -2.0D-06  0.00002  0.00001  0.00041  0.00051     49.2
@    1    -307.16662593 -2.0D-06  0.00002  0.00001  0.00041  0.00051     49.2

 Output coordinates in angstroms (scale by  1.889725989 to convert to a.u.)

  No.       Tag          Charge          X              Y              Z
 ---- ---------------- ---------- -------------- -------------- --------------
    1 H                    1.0000     1.40763354     1.40763354     1.40763354
    2 H                    1.0000    -1.40763354    -1.40763354     1.40763354
    3 H                    1.0000    -1.40763354     1.40763354    -1.40763354
    4 H                    1.0000     1.40763354    -1.40763354    -1.40763354
    5 H                    1.0000     1.40763354     1.40763354    -1.40763354
    6 H                    1.0000    -1.40763354    -1.40763354    -1.40763354
    7 H                    1.0000     1.40763354    -1.40763354     1.40763354
    8 H                    1.0000    -1.40763354     1.40763354     1.40763354
    9 C                    6.0000     0.77945112     0.77945112     0.77945112
   10 C                    6.0000    -0.77945112    -0.77945112     0.77945112
   11 C                    6.0000    -0.77945112     0.77945112    -0.77945112
   12 C                    6.0000     0.77945112    -0.77945112    -0.77945112
   13 C                    6.0000     0.77945112     0.77945112    -0.77945112
   14 C                    6.0000    -0.77945112    -0.77945112    -0.77945112
   15 C                    6.0000     0.77945112    -0.77945112     0.77945112
   16 C                    6.0000    -0.77945112     0.77945112     0.77945112

 Total times  cpu:       32.1s     wall:       49.3s
