         Total DFT energy =     -309.570463034242

 Vector   66  Occ=0.000000D+00  E= 4.008481D-01  Symmetry=t1g

 Vector   67  Occ=0.000000D+00  E= 4.092361D-01  Symmetry=a2u

 Vector   68  Occ=0.000000D+00  E= 4.150101D-01  Symmetry=t1u

 Vector   69  Occ=0.000000D+00  E= 4.150101D-01  Symmetry=t1u

 Vector   70  Occ=0.000000D+00  E= 4.150101D-01  Symmetry=t1u

 Vector   71  Occ=0.000000D+00  E= 4.332403D-01  Symmetry=t2g

 Vector   72  Occ=0.000000D+00  E= 4.332403D-01  Symmetry=t2g

 Vector   73  Occ=0.000000D+00  E= 4.332403D-01  Symmetry=t2g

 Vector   74  Occ=0.000000D+00  E= 4.776488D-01  Symmetry=eu

 Vector   75  Occ=0.000000D+00  E= 4.776488D-01  Symmetry=eu

 Vector   76  Occ=0.000000D+00  E= 5.235531D-01  Symmetry=eg

@ Step       Energy      Delta E   Gmax     Grms     Xrms     Xmax   Walltime
@ ---- ---------------- -------- -------- -------- -------- -------- --------
@    0    -309.57046303  0.0D+00  0.00048  0.00010  0.00000  0.00000    181.9
         Total DFT energy =     -309.570465701315

                       DFT Final Molecular Orbital Analysis
                       ------------------------------------

 Vector    8  Occ=2.000000D+00  E=-1.017321D+01  Symmetry=a2u

 Vector    9  Occ=2.000000D+00  E=-9.439063D-01  Symmetry=a1g

 Vector   10  Occ=2.000000D+00  E=-7.252286D-01  Symmetry=t1u

 Vector   11  Occ=2.000000D+00  E=-7.252286D-01  Symmetry=t1u

 Vector   12  Occ=2.000000D+00  E=-7.252286D-01  Symmetry=t1u

 Vector   13  Occ=2.000000D+00  E=-5.597341D-01  Symmetry=t2g

 Vector   14  Occ=2.000000D+00  E=-5.597341D-01  Symmetry=t2g

 Vector   15  Occ=2.000000D+00  E=-5.597341D-01  Symmetry=t2g

 Vector   16  Occ=2.000000D+00  E=-5.338133D-01  Symmetry=a1g

 Vector   17  Occ=2.000000D+00  E=-4.652902D-01  Symmetry=a2u

 Vector   18  Occ=2.000000D+00  E=-4.342235D-01  Symmetry=eg

 Vector   19  Occ=2.000000D+00  E=-4.342235D-01  Symmetry=eg

 Vector   20  Occ=2.000000D+00  E=-4.262194D-01  Symmetry=t1u

 Vector   21  Occ=2.000000D+00  E=-4.262194D-01  Symmetry=t1u

 Vector   22  Occ=2.000000D+00  E=-4.262194D-01  Symmetry=t1u

 Vector   23  Occ=2.000000D+00  E=-2.758167D-01  Symmetry=t2u

 Vector   24  Occ=2.000000D+00  E=-2.758167D-01  Symmetry=t2u

 Vector   25  Occ=2.000000D+00  E=-2.758167D-01  Symmetry=t2u

 Vector   26  Occ=2.000000D+00  E=-2.634937D-01  Symmetry=t2g

 Vector   27  Occ=2.000000D+00  E=-2.634937D-01  Symmetry=t2g

 Vector   28  Occ=2.000000D+00  E=-2.634937D-01  Symmetry=t2g

 Vector   29  Occ=0.000000D+00  E= 3.833288D-02  Symmetry=t1u

 Vector   30  Occ=0.000000D+00  E= 3.833288D-02  Symmetry=t1u

 Vector   31  Occ=0.000000D+00  E= 3.833288D-02  Symmetry=t1u

 Vector   32  Occ=0.000000D+00  E= 4.449378D-02  Symmetry=a1g

 Vector   33  Occ=0.000000D+00  E= 9.864909D-02  Symmetry=t2g

 Vector   34  Occ=0.000000D+00  E= 9.864909D-02  Symmetry=t2g

 Vector   35  Occ=0.000000D+00  E= 9.864909D-02  Symmetry=t2g

 Vector   36  Occ=0.000000D+00  E= 1.024773D-01  Symmetry=t1u

 Vector   37  Occ=0.000000D+00  E= 1.024773D-01  Symmetry=t1u

 Vector   38  Occ=0.000000D+00  E= 1.024773D-01  Symmetry=t1u

 Vector   39  Occ=0.000000D+00  E= 1.251500D-01  Symmetry=a2u

 Vector   40  Occ=0.000000D+00  E= 1.696813D-01  Symmetry=eg

 Vector   41  Occ=0.000000D+00  E= 1.696813D-01  Symmetry=eg

 Vector   42  Occ=0.000000D+00  E= 1.727822D-01  Symmetry=t1g

 Vector   43  Occ=0.000000D+00  E= 1.727822D-01  Symmetry=t1g

 Vector   44  Occ=0.000000D+00  E= 1.727822D-01  Symmetry=t1g

 Vector   45  Occ=0.000000D+00  E= 2.018430D-01  Symmetry=a1g

 Vector   46  Occ=0.000000D+00  E= 2.105660D-01  Symmetry=t2g

 Vector   47  Occ=0.000000D+00  E= 2.105660D-01  Symmetry=t2g

 Vector   48  Occ=0.000000D+00  E= 2.105660D-01  Symmetry=t2g

 Vector   49  Occ=0.000000D+00  E= 2.393538D-01  Symmetry=t2u

 Vector   50  Occ=0.000000D+00  E= 2.393538D-01  Symmetry=t2u

 Vector   51  Occ=0.000000D+00  E= 2.393538D-01  Symmetry=t2u

 Vector   52  Occ=0.000000D+00  E= 2.713749D-01  Symmetry=t1u

 Vector   53  Occ=0.000000D+00  E= 2.713749D-01  Symmetry=t1u

 Vector   54  Occ=0.000000D+00  E= 2.713749D-01  Symmetry=t1u

 Vector   55  Occ=0.000000D+00  E= 2.957870D-01  Symmetry=eu

 Vector   56  Occ=0.000000D+00  E= 2.957870D-01  Symmetry=eu

 Vector   57  Occ=0.000000D+00  E= 3.414083D-01  Symmetry=a1g

 Vector   58  Occ=0.000000D+00  E= 3.948033D-01  Symmetry=t1u

 Vector   59  Occ=0.000000D+00  E= 3.948033D-01  Symmetry=t1u

 Vector   60  Occ=0.000000D+00  E= 3.948033D-01  Symmetry=t1u

 Vector   61  Occ=0.000000D+00  E= 4.007733D-01  Symmetry=t2g

 Vector   62  Occ=0.000000D+00  E= 4.007733D-01  Symmetry=t2g

 Vector   63  Occ=0.000000D+00  E= 4.007733D-01  Symmetry=t2g

 Vector   64  Occ=0.000000D+00  E= 4.009035D-01  Symmetry=t1g

 Vector   65  Occ=0.000000D+00  E= 4.009035D-01  Symmetry=t1g

 Vector   66  Occ=0.000000D+00  E= 4.009035D-01  Symmetry=t1g

 Vector   67  Occ=0.000000D+00  E= 4.095578D-01  Symmetry=a2u

 Vector   68  Occ=0.000000D+00  E= 4.152071D-01  Symmetry=t1u

 Vector   69  Occ=0.000000D+00  E= 4.152071D-01  Symmetry=t1u

 Vector   70  Occ=0.000000D+00  E= 4.152071D-01  Symmetry=t1u

 Vector   71  Occ=0.000000D+00  E= 4.334620D-01  Symmetry=t2g

 Vector   72  Occ=0.000000D+00  E= 4.334620D-01  Symmetry=t2g

 Vector   73  Occ=0.000000D+00  E= 4.334620D-01  Symmetry=t2g

 Vector   74  Occ=0.000000D+00  E= 4.777119D-01  Symmetry=eu

 Vector   75  Occ=0.000000D+00  E= 4.777119D-01  Symmetry=eu

 Vector   76  Occ=0.000000D+00  E= 5.236133D-01  Symmetry=eg

     Multipole analysis of the density
     ---------------------------------

     L   x y z        total         alpha         beta         nuclear
     -   - - -        -----         -----         ----         -------
     0   0 0 0     -0.000000    -28.000000    -28.000000     56.000000

     1   1 0 0     -0.000000     -0.000000     -0.000000      0.000000
     1   0 1 0      0.000000      0.000000      0.000000      0.000000
     1   0 0 1     -0.000000     -0.000000     -0.000000      0.000000

     2   2 0 0    -35.008793    -98.585062    -98.585062    162.161331
     2   1 1 0     -0.000000     -0.000000     -0.000000      0.000000
     2   1 0 1     -0.000000     -0.000000     -0.000000      0.000000
     2   0 2 0    -35.008793    -98.585062    -98.585062    162.161331
     2   0 1 1      0.000000      0.000000      0.000000      0.000000

         Total DFT energy =   -309.570465701315
@    1    -309.57046570 -2.7D-06  0.00002  0.00000  0.00054  0.00076    288.8
@    1    -309.57046570 -2.7D-06  0.00002  0.00000  0.00054  0.00076    288.8

 Output coordinates in angstroms (scale by  1.889725989 to convert to a.u.)

  No.       Tag          Charge          X              Y              Z
 ---- ---------------- ---------- -------------- -------------- --------------
    1 H                    1.0000     1.41109888     1.41109888     1.41109888
    2 H                    1.0000    -1.41109888    -1.41109888     1.41109888
    3 H                    1.0000    -1.41109888     1.41109888    -1.41109888
    4 H                    1.0000     1.41109888    -1.41109888    -1.41109888
    5 H                    1.0000     1.41109888     1.41109888    -1.41109888
    6 H                    1.0000    -1.41109888    -1.41109888    -1.41109888
    7 H                    1.0000     1.41109888    -1.41109888     1.41109888
    8 H                    1.0000    -1.41109888     1.41109888     1.41109888
    9 C                    6.0000     0.78369057     0.78369057     0.78369057
   10 C                    6.0000    -0.78369057    -0.78369057     0.78369057
   11 C                    6.0000    -0.78369057     0.78369057    -0.78369057
   12 C                    6.0000     0.78369057    -0.78369057    -0.78369057
   13 C                    6.0000     0.78369057     0.78369057    -0.78369057
   14 C                    6.0000    -0.78369057    -0.78369057    -0.78369057
   15 C                    6.0000     0.78369057    -0.78369057     0.78369057
   16 C                    6.0000    -0.78369057     0.78369057     0.78369057

 Total times  cpu:      226.8s     wall:      288.9s
