         Total DFT energy =     -309.525045190252
@ Step       Energy      Delta E   Gmax     Grms     Xrms     Xmax   Walltime
@ ---- ---------------- -------- -------- -------- -------- -------- --------
@    0    -309.52504519  0.0D+00  0.00109  0.00025  0.00000  0.00000   5738.1
         Total DFT energy =     -309.525059481273
         Total DFT energy =     -309.525059437971
@    1    -309.52505944 -1.4D-05  0.00013  0.00003  0.00141  0.00378   9444.5
         Total DFT energy =     -309.525059733789

                    DFT Final Alpha Molecular Orbital Analysis
                    ------------------------------------------

 Vector    8  Occ=1.000000D+00  E=-1.017898D+01  Symmetry=b2

 Vector   80  Occ=0.000000D+00  E= 4.334440D-01  Symmetry=b2

 Vector   81  Occ=0.000000D+00  E= 4.466787D-01  Symmetry=a1

 Vector   82  Occ=0.000000D+00  E= 4.671165D-01  Symmetry=a2

 Vector   83  Occ=0.000000D+00  E= 5.066565D-01  Symmetry=b2

 Vector    8  Occ=1.000000D+00  E=-1.016922D+01  Symmetry=b2

 Vector    9  Occ=1.000000D+00  E=-9.234083D-01  Symmetry=a1

 Vector   10  Occ=1.000000D+00  E=-7.716617D-01  Symmetry=b2

 Vector   11  Occ=1.000000D+00  E=-7.107251D-01  Symmetry=b1

 Vector   12  Occ=1.000000D+00  E=-6.835610D-01  Symmetry=a1

 Vector   13  Occ=1.000000D+00  E=-5.784071D-01  Symmetry=a2

 Vector   14  Occ=1.000000D+00  E=-5.725964D-01  Symmetry=b2

 Vector   15  Occ=1.000000D+00  E=-5.477573D-01  Symmetry=a1

 Vector   16  Occ=1.000000D+00  E=-5.276098D-01  Symmetry=a1

 Vector   17  Occ=1.000000D+00  E=-4.735260D-01  Symmetry=b2

 Vector   18  Occ=1.000000D+00  E=-4.578940D-01  Symmetry=a1

 Vector   19  Occ=1.000000D+00  E=-4.531186D-01  Symmetry=b2

 Vector   20  Occ=1.000000D+00  E=-4.281654D-01  Symmetry=b1

 Vector   21  Occ=1.000000D+00  E=-3.797176D-01  Symmetry=b1

 Vector   22  Occ=1.000000D+00  E=-3.759858D-01  Symmetry=a1

 Vector   23  Occ=1.000000D+00  E=-3.173681D-01  Symmetry=a2

 Vector   24  Occ=1.000000D+00  E=-3.082139D-01  Symmetry=b1

 Vector   25  Occ=1.000000D+00  E=-2.860807D-01  Symmetry=b2

 Vector   26  Occ=1.000000D+00  E=-2.854728D-01  Symmetry=a1

 Vector   27  Occ=1.000000D+00  E=-2.682410D-01  Symmetry=a2

 Vector   28  Occ=0.000000D+00  E=-7.618110D-02  Symmetry=b2

 Vector   29  Occ=0.000000D+00  E=-4.894905D-02  Symmetry=a1

 Vector   30  Occ=0.000000D+00  E= 2.137340D-02  Symmetry=a1

 Vector   31  Occ=0.000000D+00  E= 2.800319D-02  Symmetry=a1

 Vector   32  Occ=0.000000D+00  E= 2.871889D-02  Symmetry=b1

 Vector   33  Occ=0.000000D+00  E= 5.160684D-02  Symmetry=b2

 Vector   34  Occ=0.000000D+00  E= 6.506740D-02  Symmetry=a1

 Vector   35  Occ=0.000000D+00  E= 6.808738D-02  Symmetry=a2

 Vector   36  Occ=0.000000D+00  E= 7.148847D-02  Symmetry=b2

 Vector   37  Occ=0.000000D+00  E= 8.550614D-02  Symmetry=a1

 Vector   38  Occ=0.000000D+00  E= 9.005088D-02  Symmetry=b1

 Vector   39  Occ=0.000000D+00  E= 1.005148D-01  Symmetry=b2

 Vector   40  Occ=0.000000D+00  E= 1.108546D-01  Symmetry=b1

 Vector   41  Occ=0.000000D+00  E= 1.167391D-01  Symmetry=a1

 Vector   42  Occ=0.000000D+00  E= 1.433028D-01  Symmetry=b2

 Vector   43  Occ=0.000000D+00  E= 1.548295D-01  Symmetry=a2

 Vector   44  Occ=0.000000D+00  E= 1.584309D-01  Symmetry=a1

 Vector   45  Occ=0.000000D+00  E= 1.607296D-01  Symmetry=b2

 Vector   46  Occ=0.000000D+00  E= 1.612396D-01  Symmetry=b1

 Vector   47  Occ=0.000000D+00  E= 1.695720D-01  Symmetry=a2

 Vector   48  Occ=0.000000D+00  E= 1.737533D-01  Symmetry=b1

 Vector   49  Occ=0.000000D+00  E= 1.831394D-01  Symmetry=a2

 Vector   50  Occ=0.000000D+00  E= 1.848506D-01  Symmetry=a1

 Vector   51  Occ=0.000000D+00  E= 1.863894D-01  Symmetry=b2

 Vector   52  Occ=0.000000D+00  E= 2.127786D-01  Symmetry=a1

 Vector   53  Occ=0.000000D+00  E= 2.170221D-01  Symmetry=a1

 Vector   54  Occ=0.000000D+00  E= 2.295406D-01  Symmetry=b1

 Vector   55  Occ=0.000000D+00  E= 2.522468D-01  Symmetry=a1

 Vector   56  Occ=0.000000D+00  E= 2.617128D-01  Symmetry=b2

 Vector   57  Occ=0.000000D+00  E= 2.691925D-01  Symmetry=b2

 Vector   58  Occ=0.000000D+00  E= 2.712009D-01  Symmetry=a2

 Vector   59  Occ=0.000000D+00  E= 2.843658D-01  Symmetry=a1

 Vector   60  Occ=0.000000D+00  E= 2.942655D-01  Symmetry=a2

 Vector   61  Occ=0.000000D+00  E= 2.978837D-01  Symmetry=b1

 Vector   62  Occ=0.000000D+00  E= 2.987598D-01  Symmetry=b2

 Vector   63  Occ=0.000000D+00  E= 3.012532D-01  Symmetry=a1

 Vector   64  Occ=0.000000D+00  E= 3.047845D-01  Symmetry=b2

 Vector   65  Occ=0.000000D+00  E= 3.121248D-01  Symmetry=a1

 Vector   66  Occ=0.000000D+00  E= 3.150999D-01  Symmetry=b1

 Vector   67  Occ=0.000000D+00  E= 3.152878D-01  Symmetry=a2

 Vector   68  Occ=0.000000D+00  E= 3.161909D-01  Symmetry=b2

 Vector   69  Occ=0.000000D+00  E= 3.165862D-01  Symmetry=a1

 Vector   70  Occ=0.000000D+00  E= 3.235232D-01  Symmetry=b2

 Vector   71  Occ=0.000000D+00  E= 3.380966D-01  Symmetry=b2

 Vector   72  Occ=0.000000D+00  E= 3.453883D-01  Symmetry=b1

 Vector   73  Occ=0.000000D+00  E= 3.472235D-01  Symmetry=a2

 Vector   74  Occ=0.000000D+00  E= 3.640479D-01  Symmetry=b1

 Vector   75  Occ=0.000000D+00  E= 3.840030D-01  Symmetry=b2

 Vector   76  Occ=0.000000D+00  E= 3.932604D-01  Symmetry=a2

 Vector   77  Occ=0.000000D+00  E= 3.941119D-01  Symmetry=a1

 Vector   78  Occ=0.000000D+00  E= 4.139425D-01  Symmetry=b2

 Vector   79  Occ=0.000000D+00  E= 4.330104D-01  Symmetry=a1

 Vector   80  Occ=0.000000D+00  E= 4.380672D-01  Symmetry=b2

 Vector   81  Occ=0.000000D+00  E= 4.521032D-01  Symmetry=a1

 Vector   82  Occ=0.000000D+00  E= 4.676661D-01  Symmetry=a2

 Vector   83  Occ=0.000000D+00  E= 5.094825D-01  Symmetry=b1

     Multipole analysis of the density
     ---------------------------------

     L   x y z        total         alpha         beta         nuclear
     -   - - -        -----         -----         ----         -------
     0   0 0 0      0.000000    -29.000000    -27.000000     56.000000

     1   1 0 0     -0.000000     -0.000000      0.000000     -0.000000
     1   0 1 0     -0.000000     -0.000000      0.000000      0.000000
     1   0 0 1      0.098683      1.541518     -1.448122      0.005286

     2   2 0 0    -34.284008    -97.755730    -94.536773    158.008496
     2   1 1 0      0.000000      0.000000      0.000000      0.000000
     2   1 0 1     -0.000000     -0.000000      0.000000      0.000000
     2   0 2 0    -37.431776   -134.868424   -116.445242    213.881890
     2   0 1 1     -0.000000      0.000000     -0.000000      0.000000

         Total DFT energy =   -309.525059733789
@    2    -309.52505973 -3.0D-07  0.00003  0.00001  0.00015  0.00035  11570.7
@    2    -309.52505973 -3.0D-07  0.00003  0.00001  0.00015  0.00035  11570.7

 Output coordinates in angstroms (scale by  1.889725989 to convert to a.u.)

  No.       Tag          Charge          X              Y              Z
 ---- ---------------- ---------- -------------- -------------- --------------
    1 H                    1.0000     2.04751540    -1.28305698     0.01402688
    2 C                    6.0000     1.07000028    -0.81258731    -0.05743553
    3 H                    1.0000     2.04751540     1.28305698     0.01402688
    4 C                    6.0000     1.07000028     0.81258731    -0.05743553
    5 H                    1.0000     0.00000000    -1.61020134    -2.01435917
    6 C                    6.0000     0.00000000    -1.32343256    -0.97118519
    7 H                    1.0000     0.00000000     1.61020134    -2.01435917
    8 C                    6.0000     0.00000000     1.32343256    -0.97118519
    9 H                    1.0000     0.00000000    -1.43834592     1.94754313
   10 C                    6.0000     0.00000000    -0.77028579     1.09274975
   11 H                    1.0000     0.00000000     1.43834592     1.94754313
   12 C                    6.0000     0.00000000     0.77028579     1.09274975
   13 H                    1.0000    -2.04751540    -1.28305698     0.01402688
   14 C                    6.0000    -1.07000028    -0.81258731    -0.05743553
   15 H                    1.0000    -2.04751540     1.28305698     0.01402688
   16 C                    6.0000    -1.07000028     0.81258731    -0.05743553

 Total times  cpu:    10197.6s     wall:    11570.7s
