         Total SCF energy =   -307.506673871290

 Vector   61  Occ=0.000000D+00  E= 4.548878D-01  Symmetry=t2g

 Vector   62  Occ=0.000000D+00  E= 4.548878D-01  Symmetry=t2g

 Vector   63  Occ=0.000000D+00  E= 4.548878D-01  Symmetry=t2g

 Vector   64  Occ=0.000000D+00  E= 4.635049D-01  Symmetry=a2u

 Vector   65  Occ=0.000000D+00  E= 4.731379D-01  Symmetry=t1g

 Vector   66  Occ=0.000000D+00  E= 4.731379D-01  Symmetry=t1g

 Vector   67  Occ=0.000000D+00  E= 4.731379D-01  Symmetry=t1g

 Vector   68  Occ=0.000000D+00  E= 4.780623D-01  Symmetry=t1u

 Vector   69  Occ=0.000000D+00  E= 4.780623D-01  Symmetry=t1u

 Vector   70  Occ=0.000000D+00  E= 4.780623D-01  Symmetry=t1u

 Vector   71  Occ=0.000000D+00  E= 4.872186D-01  Symmetry=t2g

 Vector   72  Occ=0.000000D+00  E= 4.872186D-01  Symmetry=t2g

 Vector   73  Occ=0.000000D+00  E= 4.872186D-01  Symmetry=t2g

 Vector   74  Occ=0.000000D+00  E= 5.859431D-01  Symmetry=eg

@ Step       Energy      Delta E   Gmax     Grms     Xrms     Xmax   Walltime
@ ---- ---------------- -------- -------- -------- -------- -------- --------
@    0    -307.50667387  0.0D+00  0.00003  0.00001  0.00000  0.00000   3650.5
         Total SCF energy =   -307.506673886335

 Vector    9  Occ=2.000000D+00  E=-1.251938D+00  Symmetry=a1g

 Vector   10  Occ=2.000000D+00  E=-9.822917D-01  Symmetry=t1u

 Vector   11  Occ=2.000000D+00  E=-9.822917D-01  Symmetry=t1u

 Vector   12  Occ=2.000000D+00  E=-9.822917D-01  Symmetry=t1u

 Vector   13  Occ=2.000000D+00  E=-7.692379D-01  Symmetry=t2g

 Vector   14  Occ=2.000000D+00  E=-7.692379D-01  Symmetry=t2g

 Vector   15  Occ=2.000000D+00  E=-7.692379D-01  Symmetry=t2g

 Vector   16  Occ=2.000000D+00  E=-7.149608D-01  Symmetry=a1g

 Vector   17  Occ=2.000000D+00  E=-6.421057D-01  Symmetry=a2u

 Vector   18  Occ=2.000000D+00  E=-5.838407D-01  Symmetry=eg

 Vector   19  Occ=2.000000D+00  E=-5.838407D-01  Symmetry=eg

 Vector   20  Occ=2.000000D+00  E=-5.829294D-01  Symmetry=t1u

 Vector   21  Occ=2.000000D+00  E=-5.829294D-01  Symmetry=t1u

 Vector   22  Occ=2.000000D+00  E=-5.829294D-01  Symmetry=t1u

 Vector   23  Occ=2.000000D+00  E=-3.917350D-01  Symmetry=t2u

 Vector   24  Occ=2.000000D+00  E=-3.917350D-01  Symmetry=t2u

 Vector   25  Occ=2.000000D+00  E=-3.917350D-01  Symmetry=t2u

 Vector   26  Occ=2.000000D+00  E=-3.829940D-01  Symmetry=t2g

 Vector   27  Occ=2.000000D+00  E=-3.829940D-01  Symmetry=t2g

 Vector   28  Occ=2.000000D+00  E=-3.829940D-01  Symmetry=t2g

 Vector   29  Occ=0.000000D+00  E= 1.104325D-01  Symmetry=a1g

 Vector   30  Occ=0.000000D+00  E= 1.188225D-01  Symmetry=t1u

 Vector   31  Occ=0.000000D+00  E= 1.188225D-01  Symmetry=t1u

 Vector   32  Occ=0.000000D+00  E= 1.188225D-01  Symmetry=t1u

 Vector   33  Occ=0.000000D+00  E= 1.511504D-01  Symmetry=t2g

 Vector   34  Occ=0.000000D+00  E= 1.511504D-01  Symmetry=t2g

 Vector   35  Occ=0.000000D+00  E= 1.511504D-01  Symmetry=t2g

 Vector   36  Occ=0.000000D+00  E= 1.819120D-01  Symmetry=a2u

 Vector   37  Occ=0.000000D+00  E= 1.865932D-01  Symmetry=t1u

 Vector   38  Occ=0.000000D+00  E= 1.865932D-01  Symmetry=t1u

 Vector   39  Occ=0.000000D+00  E= 1.865932D-01  Symmetry=t1u

 Vector   40  Occ=0.000000D+00  E= 2.077267D-01  Symmetry=eg

 Vector   41  Occ=0.000000D+00  E= 2.077267D-01  Symmetry=eg

 Vector   42  Occ=0.000000D+00  E= 2.668381D-01  Symmetry=t2g

 Vector   43  Occ=0.000000D+00  E= 2.668381D-01  Symmetry=t2g

 Vector   44  Occ=0.000000D+00  E= 2.668381D-01  Symmetry=t2g

 Vector   45  Occ=0.000000D+00  E= 2.701053D-01  Symmetry=t2u

 Vector   46  Occ=0.000000D+00  E= 2.701053D-01  Symmetry=t2u

 Vector   47  Occ=0.000000D+00  E= 2.701053D-01  Symmetry=t2u

 Vector   48  Occ=0.000000D+00  E= 2.994025D-01  Symmetry=t1g

 Vector   49  Occ=0.000000D+00  E= 2.994025D-01  Symmetry=t1g

 Vector   50  Occ=0.000000D+00  E= 2.994025D-01  Symmetry=t1g

 Vector   51  Occ=0.000000D+00  E= 3.016968D-01  Symmetry=a1g

 Vector   52  Occ=0.000000D+00  E= 3.352284D-01  Symmetry=t1u

 Vector   53  Occ=0.000000D+00  E= 3.352284D-01  Symmetry=t1u

 Vector   54  Occ=0.000000D+00  E= 3.352284D-01  Symmetry=t1u

 Vector   55  Occ=0.000000D+00  E= 3.547603D-01  Symmetry=a1g

 Vector   56  Occ=0.000000D+00  E= 3.874558D-01  Symmetry=eu

 Vector   57  Occ=0.000000D+00  E= 3.874558D-01  Symmetry=eu

 Vector   58  Occ=0.000000D+00  E= 4.245064D-01  Symmetry=t1u

 Vector   59  Occ=0.000000D+00  E= 4.245064D-01  Symmetry=t1u

 Vector   60  Occ=0.000000D+00  E= 4.245064D-01  Symmetry=t1u

 Vector   61  Occ=0.000000D+00  E= 4.548867D-01  Symmetry=t2g

 Vector   62  Occ=0.000000D+00  E= 4.548867D-01  Symmetry=t2g

 Vector   63  Occ=0.000000D+00  E= 4.548867D-01  Symmetry=t2g

 Vector   64  Occ=0.000000D+00  E= 4.635052D-01  Symmetry=a2u

 Vector   65  Occ=0.000000D+00  E= 4.731495D-01  Symmetry=t1g

 Vector   66  Occ=0.000000D+00  E= 4.731495D-01  Symmetry=t1g

 Vector   67  Occ=0.000000D+00  E= 4.731495D-01  Symmetry=t1g

 Vector   68  Occ=0.000000D+00  E= 4.780553D-01  Symmetry=t1u

 Vector   69  Occ=0.000000D+00  E= 4.780553D-01  Symmetry=t1u

 Vector   70  Occ=0.000000D+00  E= 4.780553D-01  Symmetry=t1u

 Vector   71  Occ=0.000000D+00  E= 4.872298D-01  Symmetry=t2g

 Vector   72  Occ=0.000000D+00  E= 4.872298D-01  Symmetry=t2g

 Vector   73  Occ=0.000000D+00  E= 4.872298D-01  Symmetry=t2g

 Vector   74  Occ=0.000000D+00  E= 5.859480D-01  Symmetry=eg

       Multipole analysis of the density wrt the origin
       ------------------------------------------------

     L   x y z        total         open         nuclear
     -   - - -        -----         ----         -------
     0   0 0 0      0.000000      0.000000     56.000000

     1   1 0 0     -0.000000      0.000000      0.000000
     1   0 1 0      0.000000      0.000000      0.000000
     1   0 0 1      0.000000      0.000000      0.000000

     2   2 0 0    -34.865166      0.000000    159.947772
     2   1 1 0     -0.000000      0.000000      0.000000
     2   1 0 1     -0.000000      0.000000      0.000000
     2   0 2 0    -34.865166      0.000000    159.947772
     2   0 1 1      0.000000      0.000000      0.000000

         Total SCF energy =   -307.506673886335
@    1    -307.50667389 -1.5D-08  0.00000  0.00000  0.00003  0.00004   6275.1
@    1    -307.50667389 -1.5D-08  0.00000  0.00000  0.00003  0.00004   6275.1

 Output coordinates in angstroms (scale by  1.889725989 to convert to a.u.)

  No.       Tag          Charge          X              Y              Z
 ---- ---------------- ---------- -------------- -------------- --------------
    1 H                    1.0000     1.40080932     1.40080932     1.40080932
    2 H                    1.0000    -1.40080932    -1.40080932     1.40080932
    3 H                    1.0000    -1.40080932     1.40080932    -1.40080932
    4 H                    1.0000     1.40080932    -1.40080932    -1.40080932
    5 H                    1.0000     1.40080932     1.40080932    -1.40080932
    6 H                    1.0000    -1.40080932    -1.40080932    -1.40080932
    7 H                    1.0000     1.40080932    -1.40080932     1.40080932
    8 H                    1.0000    -1.40080932     1.40080932     1.40080932
    9 C                    6.0000     0.77851101     0.77851101     0.77851101
   10 C                    6.0000    -0.77851101    -0.77851101     0.77851101
   11 C                    6.0000    -0.77851101     0.77851101    -0.77851101
   12 C                    6.0000     0.77851101    -0.77851101    -0.77851101
   13 C                    6.0000     0.77851101     0.77851101    -0.77851101
   14 C                    6.0000    -0.77851101    -0.77851101    -0.77851101
   15 C                    6.0000     0.77851101    -0.77851101     0.77851101
   16 C                    6.0000    -0.77851101     0.77851101     0.77851101

 Total times  cpu:     6265.2s     wall:     6275.2s
