 Q-Chem 4.4, Q-Chem, Inc., Pleasanton, CA (2016)
 Q-Chem 4.4.1 for Intel X86 Linux

User input:
--------------------------------------------------------------
$comment0
$end

$rem
SYMMETRY              True
BASIS                 cc-pVDZ
METHOD                CCSD
N_FROZEN_CORE         FC
SCF_CONVERGENCE       8
JOBTYPE               opt
$end

$molecule
0 3
H                     2.06721087    -1.28929797     0.02841710
C                     1.07859343    -0.80828295    -0.04633276
H                     2.06721087     1.28929797     0.02841710
C                     1.07859343     0.80828295    -0.04633276
H                     0.00000000    -1.50355455    -2.06323477
C                     0.00000000    -1.33405546    -0.97751922
H                     0.00000000     1.50355455    -2.06323477
C                     0.00000000     1.33405546    -0.97751922
H                     0.00000000    -1.45662892     1.97635158
C                     0.00000000    -0.77866605     1.11042931
H                     0.00000000     1.45662892     1.97635158
C                     0.00000000     0.77866605     1.11042931
H                    -2.06721087    -1.28929797     0.02841710
C                    -1.07859343    -0.80828295    -0.04633276
H                    -2.06721087     1.28929797     0.02841710
C                    -1.07859343     0.80828295    -0.04633276
$end
--------------------------------------------------------------

   19    -307.3838702953      8.94E-09 Convergence criterion met
 Total energy in the final basis set = -307.3838702953
 CCSD total energy           = -308.48002651

             Standard Nuclear Orientation (Angstroms)
    I     Atom           X                Y                Z
 ----------------------------------------------------------------
    1      H      -1.2893321714    -2.0672125316     0.0207415792
    2      C      -0.8083099365    -1.0785964142    -0.0538708032
    3      H       1.2893321714    -2.0672125316     0.0207415792
    4      C       0.8083099365    -1.0785964142    -0.0538708032
    5      H      -1.5041499144     0.0000000000    -2.0705904829
    6      C      -1.3341419507     0.0000000000    -0.9849675940
    7      H       1.5041499144     0.0000000000    -2.0705904829
    8      C       1.3341419507     0.0000000000    -0.9849675940
    9      H      -1.4567258848     0.0000000000     1.9687252898
   10      C      -0.7786677645     0.0000000000     1.1028815493
   11      H       1.4567258848     0.0000000000     1.9687252898
   12      C       0.7786677645     0.0000000000     1.1028815493
   13      H      -1.2893321714     2.0672125316     0.0207415792
   14      C      -0.8083099365     1.0785964142    -0.0538708032
   15      H       1.2893321714     2.0672125316     0.0207415792
   16      C       0.8083099365     1.0785964142    -0.0538708032
 ----------------------------------------------------------------

    7    -307.3838696686      9.58E-09 Convergence criterion met
 Total energy in the final basis set = -307.3838696686
 CCSD total energy           = -308.48002651
 Final energy is   -308.480026512342
 **  OPTIMIZATION CONVERGED  **

             Orbital Energies (a.u.) and Symmetries
 --------------------------------------------------------------

 Alpha MOs, Unrestricted
 -- Occupied --
-11.239 -11.238 -11.234 -11.238 -11.239 -11.238 -11.234 -11.239
  1 A1    2 A1    3 A1    1 A2    1 B1    2 B1    3 B1    1 B2
 -1.227  -0.950  -0.771  -0.703  -0.632  -0.548  -0.413  -0.306
  4 A1    5 A1    6 A1    7 A1    8 A1    9 A1   10 A1   11 A1
 -0.787  -0.449  -0.382  -1.057  -0.808  -0.655  -0.611  -0.414
  2 A2    3 A2    4 A2    4 B1    5 B1    6 B1    7 B1    8 B1
 -0.371  -0.965  -0.574  -0.526  -0.440
  9 B1    2 B2    3 B2    4 B2    5 B2

 Beta MOs, Unrestricted
 -- Occupied --
-11.239 -11.233 -11.214 -11.239 -11.239 -11.232 -11.214 -11.239
  1 A1    2 A1    3 A1    1 A2    1 B1    2 B1    3 B1    1 B2
 -1.209  -0.910  -0.735  -0.691  -0.605  -0.494  -0.402  -0.785
  4 A1    5 A1    6 A1    7 A1    8 A1    9 A1   10 A1    2 A2
 -0.434  -0.381  -1.016  -0.768  -0.641  -0.602  -0.405  -0.958
  3 A2    4 A2    4 B1    5 B1    6 B1    7 B1    8 B1    2 B2
 -0.569  -0.517  -0.423
  3 B2    4 B2    5 B2

          Ground-State Mulliken Net Atomic Charges

     Atom                 Charge (a.u.)    Spin (a.u.)
  --------------------------------------------------------
      1 H                     0.010323       0.014770
      2 C                    -0.038883      -0.020036
      3 H                     0.010323       0.014770
      4 C                    -0.038883      -0.020036
      5 H                     0.023720      -0.032656
      6 C                     0.022076       1.022997
      7 H                     0.023720      -0.032656
      8 C                     0.022076       1.022997
      9 H                     0.000299       0.001303
     10 C                     0.011024       0.018888
     11 H                     0.000299       0.001303
     12 C                     0.011024       0.018888
     13 H                     0.010323       0.014770
     14 C                    -0.038883      -0.020036
     15 H                     0.010323       0.014770
     16 C                    -0.038883      -0.020036
  --------------------------------------------------------
  Sum of atomic charges =     0.000000

                    Cartesian Multipole Moments
 -----------------------------------------------------------------
    Charge (ESU x 10^10)
                 0.0000
    Dipole Moment (Debye)
         X       0.0000      Y       0.0000      Z       0.1425
       Tot       0.1425
    Quadrupole Moments (Debye-Ang)
        XX     -50.8315     XY       0.0000     YY     -46.8053
        XZ       0.0000     YZ       0.0000     ZZ     -47.1564

 Total job time:  1094.47s(wall), 2140.76s(cpu)
        *  Thank you very much for using Q-Chem.  Have a nice day.  *
