         Total SCF energy =   -307.422879997900
          Total MP2 energy          -308.527215433033
@ Step       Energy      Delta E   Gmax     Grms     Xrms     Xmax   Walltime
@ ---- ---------------- -------- -------- -------- -------- -------- --------
@    0    -308.52721543  0.0D+00  0.01187  0.00253  0.00000  0.00000    616.6
         Total SCF energy =   -307.422093700133
          Total MP2 energy          -308.528762244820
         Total SCF energy =   -307.422093700133
          Total MP2 energy          -308.528762244820
@    1    -308.52876224 -1.5D-03  0.00056  0.00018  0.01365  0.01931   1473.2
         Total SCF energy =   -307.422361407010
          Total MP2 energy          -308.528758643949
         Total SCF energy =   -307.422205148860

 Vector   12  Occ=2.000000D+00  E=-9.737149D-01  Symmetry=t1u

 Vector   13  Occ=2.000000D+00  E=-7.651888D-01  Symmetry=t2g

 Vector   14  Occ=2.000000D+00  E=-7.651888D-01  Symmetry=t2g

 Vector   15  Occ=2.000000D+00  E=-7.651888D-01  Symmetry=t2g

 Vector   16  Occ=2.000000D+00  E=-7.035068D-01  Symmetry=a1g

 Vector   17  Occ=2.000000D+00  E=-6.393737D-01  Symmetry=a2u

 Vector   18  Occ=2.000000D+00  E=-5.755294D-01  Symmetry=t1u

 Vector   19  Occ=2.000000D+00  E=-5.755294D-01  Symmetry=t1u

 Vector   20  Occ=2.000000D+00  E=-5.755294D-01  Symmetry=t1u

 Vector   21  Occ=2.000000D+00  E=-5.733033D-01  Symmetry=eg

 Vector   22  Occ=2.000000D+00  E=-5.733033D-01  Symmetry=eg

 Vector   23  Occ=2.000000D+00  E=-3.877556D-01  Symmetry=t2u

 Vector   24  Occ=2.000000D+00  E=-3.877556D-01  Symmetry=t2u

 Vector   25  Occ=2.000000D+00  E=-3.877556D-01  Symmetry=t2u

 Vector   26  Occ=2.000000D+00  E=-3.825875D-01  Symmetry=t2g

 Vector   27  Occ=2.000000D+00  E=-3.825875D-01  Symmetry=t2g

 Vector   28  Occ=2.000000D+00  E=-3.825875D-01  Symmetry=t2g

 Vector   29  Occ=0.000000D+00  E= 3.366074D-02  Symmetry=a1g

 Vector   30  Occ=0.000000D+00  E= 4.274236D-02  Symmetry=t1u

 Vector   31  Occ=0.000000D+00  E= 4.274236D-02  Symmetry=t1u

 Vector   32  Occ=0.000000D+00  E= 4.274236D-02  Symmetry=t1u

 Vector   33  Occ=0.000000D+00  E= 5.791681D-02  Symmetry=t2g

 Vector   34  Occ=0.000000D+00  E= 5.791681D-02  Symmetry=t2g

 Vector   35  Occ=0.000000D+00  E= 5.791681D-02  Symmetry=t2g

 Vector   36  Occ=0.000000D+00  E= 8.464717D-02  Symmetry=a2u

 Vector   37  Occ=0.000000D+00  E= 1.172009D-01  Symmetry=t1u

 Vector   38  Occ=0.000000D+00  E= 1.172009D-01  Symmetry=t1u

 Vector   39  Occ=0.000000D+00  E= 1.172009D-01  Symmetry=t1u

 Vector   40  Occ=0.000000D+00  E= 1.212647D-01  Symmetry=eg

 Vector   41  Occ=0.000000D+00  E= 1.212647D-01  Symmetry=eg

 Vector   42  Occ=0.000000D+00  E= 1.496935D-01  Symmetry=a1g

 Vector   43  Occ=0.000000D+00  E= 1.499896D-01  Symmetry=t2g

 Vector   44  Occ=0.000000D+00  E= 1.499896D-01  Symmetry=t2g

 Vector   45  Occ=0.000000D+00  E= 1.499896D-01  Symmetry=t2g

 Vector   46  Occ=0.000000D+00  E= 1.541069D-01  Symmetry=t2u

 Vector   47  Occ=0.000000D+00  E= 1.541069D-01  Symmetry=t2u

 Vector   48  Occ=0.000000D+00  E= 1.541069D-01  Symmetry=t2u

 Vector   49  Occ=0.000000D+00  E= 1.730355D-01  Symmetry=t1u

 Vector   50  Occ=0.000000D+00  E= 1.730355D-01  Symmetry=t1u

 Vector   51  Occ=0.000000D+00  E= 1.730355D-01  Symmetry=t1u

 Vector   52  Occ=0.000000D+00  E= 1.918702D-01  Symmetry=t2g

 Vector   53  Occ=0.000000D+00  E= 1.918702D-01  Symmetry=t2g

 Vector   54  Occ=0.000000D+00  E= 1.918702D-01  Symmetry=t2g

 Vector   55  Occ=0.000000D+00  E= 1.921394D-01  Symmetry=t1g

 Vector   56  Occ=0.000000D+00  E= 1.921394D-01  Symmetry=t1g

 Vector   57  Occ=0.000000D+00  E= 1.921394D-01  Symmetry=t1g

 Vector   58  Occ=0.000000D+00  E= 2.118614D-01  Symmetry=a2u

 Vector   59  Occ=0.000000D+00  E= 2.276477D-01  Symmetry=eu

 Vector   60  Occ=0.000000D+00  E= 2.276477D-01  Symmetry=eu

 Vector   61  Occ=0.000000D+00  E= 2.325180D-01  Symmetry=t1u

 Vector   62  Occ=0.000000D+00  E= 2.325180D-01  Symmetry=t1u

 Vector   63  Occ=0.000000D+00  E= 2.325180D-01  Symmetry=t1u

 Vector   64  Occ=0.000000D+00  E= 2.672910D-01  Symmetry=a1g

 Vector   65  Occ=0.000000D+00  E= 3.193551D-01  Symmetry=t2g

 Vector   66  Occ=0.000000D+00  E= 3.193551D-01  Symmetry=t2g

 Vector   67  Occ=0.000000D+00  E= 3.193551D-01  Symmetry=t2g

 Vector   68  Occ=0.000000D+00  E= 3.678942D-01  Symmetry=t1g

 Vector   69  Occ=0.000000D+00  E= 3.678942D-01  Symmetry=t1g

 Vector   70  Occ=0.000000D+00  E= 3.678942D-01  Symmetry=t1g

 Vector   71  Occ=0.000000D+00  E= 3.831194D-01  Symmetry=a1g

 Vector   72  Occ=0.000000D+00  E= 3.945235D-01  Symmetry=t1u

 Vector   73  Occ=0.000000D+00  E= 3.945235D-01  Symmetry=t1u

 Vector   74  Occ=0.000000D+00  E= 3.945235D-01  Symmetry=t1u

 Vector   75  Occ=0.000000D+00  E= 3.992576D-01  Symmetry=eg

 Vector   76  Occ=0.000000D+00  E= 3.992576D-01  Symmetry=eg

 Vector   77  Occ=0.000000D+00  E= 4.098815D-01  Symmetry=t1u

 Vector   78  Occ=0.000000D+00  E= 4.098815D-01  Symmetry=t1u

 Vector   79  Occ=0.000000D+00  E= 4.098815D-01  Symmetry=t1u

 Vector   80  Occ=0.000000D+00  E= 4.423059D-01  Symmetry=a2u

 Vector   81  Occ=0.000000D+00  E= 4.441984D-01  Symmetry=t2u

 Vector   82  Occ=0.000000D+00  E= 4.441984D-01  Symmetry=t2u

 Vector   83  Occ=0.000000D+00  E= 4.441984D-01  Symmetry=t2u

 Vector   84  Occ=0.000000D+00  E= 4.477144D-01  Symmetry=t2g

 Vector   85  Occ=0.000000D+00  E= 4.477144D-01  Symmetry=t2g

 Vector   86  Occ=0.000000D+00  E= 4.477144D-01  Symmetry=t2g

 Vector   87  Occ=0.000000D+00  E= 4.769807D-01  Symmetry=eu

 Vector   88  Occ=0.000000D+00  E= 4.769807D-01  Symmetry=eu

 Vector   89  Occ=0.000000D+00  E= 4.895036D-01  Symmetry=eg

 Vector   90  Occ=0.000000D+00  E= 4.895036D-01  Symmetry=eg

 Vector   91  Occ=0.000000D+00  E= 5.223510D-01  Symmetry=t1u

       Multipole analysis of the density wrt the origin
       ------------------------------------------------

     L   x y z        total         open         nuclear
     -   - - -        -----         ----         -------
     0   0 0 0      0.000000      0.000000     56.000000

     1   1 0 0      0.000000      0.000000      0.000000
     1   0 1 0      0.000000      0.000000      0.000000
     1   0 0 1     -0.000000      0.000000      0.000000

     2   2 0 0    -35.156346      0.000000    164.777343
     2   1 1 0      0.000000      0.000000      0.000000
     2   1 0 1      0.000000      0.000000      0.000000
     2   0 2 0    -35.156346      0.000000    164.777343
     2   0 1 1      0.000000      0.000000      0.000000

          Total MP2 energy          -308.528762339774
@    2    -308.52876234 -9.5D-08  0.00021  0.00006  0.00051  0.00064   2422.8
@    2    -308.52876234 -9.5D-08  0.00021  0.00006  0.00051  0.00064   2422.8

 Output coordinates in angstroms (scale by  1.889725989 to convert to a.u.)

  No.       Tag          Charge          X              Y              Z
 ---- ---------------- ---------- -------------- -------------- --------------
    1 H                    1.0000     1.42387586     1.42387586     1.42387586
    2 H                    1.0000    -1.42387586    -1.42387586     1.42387586
    3 H                    1.0000    -1.42387586     1.42387586    -1.42387586
    4 H                    1.0000     1.42387586    -1.42387586    -1.42387586
    5 H                    1.0000     1.42387586     1.42387586    -1.42387586
    6 H                    1.0000    -1.42387586    -1.42387586    -1.42387586
    7 H                    1.0000     1.42387586    -1.42387586     1.42387586
    8 H                    1.0000    -1.42387586     1.42387586     1.42387586
    9 C                    6.0000     0.78955397     0.78955397     0.78955397
   10 C                    6.0000    -0.78955397    -0.78955397     0.78955397
   11 C                    6.0000    -0.78955397     0.78955397    -0.78955397
   12 C                    6.0000     0.78955397    -0.78955397    -0.78955397
   13 C                    6.0000     0.78955397     0.78955397    -0.78955397
   14 C                    6.0000    -0.78955397    -0.78955397    -0.78955397
   15 C                    6.0000     0.78955397    -0.78955397     0.78955397
   16 C                    6.0000    -0.78955397     0.78955397     0.78955397

 Total times  cpu:     2761.9s     wall:     2422.8s
