         Total SCF energy =   -307.272266958756
         Total SCF energy =   -307.272113733785
         Total SCF energy =   -307.272392749425
         Total SCF energy =   -307.272734054266
         Total SCF energy =   -307.271763404508
         Total SCF energy =   -307.272227965579
         Total SCF energy =   -307.272293838609
         Total SCF energy =   -307.272105047905
         Total SCF energy =   -307.272404331981
         Total SCF energy =   -307.272346342198
         Total SCF energy =   -307.272181919070
         Total SCF energy =   -307.272435224167
         Total SCF energy =   -307.272028878480
         Total SCF energy =   -307.272170696181
         Total SCF energy =   -307.272347452114
         Total SCF energy =   -307.271748657237
         Total SCF energy =   -307.272714850004
         Total SCF energy =   -307.272160347081
         Total SCF energy =   -307.272311412479
         Total SCF energy =   -307.270982308019
         Total SCF energy =   -307.273546028395
         Total SCF energy =   -307.271944182593
         Total SCF energy =   -307.272525103792
         Total SCF energy =   -307.272156773484
         Total SCF energy =   -307.272302551026
         Total SCF energy =   -307.272037801635
         Total SCF energy =   -307.272470751298
@ Step       Energy      Delta E   Gmax     Grms     Xrms     Xmax   Walltime
@ ---- ---------------- -------- -------- -------- -------- -------- --------
@    0    -308.46391678  0.0D+00  0.00001  0.00000  0.00000  0.00000  44745.3
         Total SCF energy =   -307.272265867683
         Total SCF energy =   -307.272112626601
         Total SCF energy =   -307.272391674647
         Total SCF energy =   -307.272732941430
         Total SCF energy =   -307.271762335422
         Total SCF energy =   -307.272226865083
         Total SCF energy =   -307.272292756999
         Total SCF energy =   -307.272103937408
         Total SCF energy =   -307.272403260692
         Total SCF energy =   -307.272345241773
         Total SCF energy =   -307.272180837442
         Total SCF energy =   -307.272434132225
         Total SCF energy =   -307.272027788637
         Total SCF energy =   -307.272169585192
         Total SCF energy =   -307.272346381147
         Total SCF energy =   -307.271747545228
         Total SCF energy =   -307.272713780584
         Total SCF energy =   -307.272159278525
         Total SCF energy =   -307.272310299342
         Total SCF energy =   -307.270981219850
         Total SCF energy =   -307.273544934621
         Total SCF energy =   -307.271943082145
         Total SCF energy =   -307.272524022770
         Total SCF energy =   -307.272155682015
         Total SCF energy =   -307.272301461302

 Vector   43  Occ=0.000000D+00  E= 4.099349D-01  Symmetry=b2

 Vector   44  Occ=0.000000D+00  E= 4.211131D-01  Symmetry=a2

 Vector   45  Occ=0.000000D+00  E= 4.310751D-01  Symmetry=a1

 Vector   46  Occ=0.000000D+00  E= 5.143078D-01  Symmetry=a2

         Total SCF energy =   -307.272036719276

 Vector    9  Occ=2.000000D+00  E=-1.220982D+00  Symmetry=a1

 Vector   10  Occ=2.000000D+00  E=-1.024359D+00  Symmetry=b2

 Vector   11  Occ=2.000000D+00  E=-9.682272D-01  Symmetry=b1

 Vector   12  Occ=2.000000D+00  E=-9.350200D-01  Symmetry=a1

 Vector   13  Occ=2.000000D+00  E=-7.870837D-01  Symmetry=b2

 Vector   14  Occ=2.000000D+00  E=-7.844819D-01  Symmetry=a2

 Vector   15  Occ=2.000000D+00  E=-7.567904D-01  Symmetry=a1

 Vector   16  Occ=2.000000D+00  E=-7.002770D-01  Symmetry=a1

 Vector   17  Occ=2.000000D+00  E=-6.514121D-01  Symmetry=b2

 Vector   18  Occ=2.000000D+00  E=-6.078239D-01  Symmetry=a1

 Vector   19  Occ=2.000000D+00  E=-6.059970D-01  Symmetry=b2

 Vector   20  Occ=2.000000D+00  E=-5.743318D-01  Symmetry=b1

 Vector   21  Occ=2.000000D+00  E=-5.384267D-01  Symmetry=b1

 Vector   22  Occ=2.000000D+00  E=-5.294765D-01  Symmetry=a1

 Vector   23  Occ=2.000000D+00  E=-4.440742D-01  Symmetry=a2

 Vector   24  Occ=2.000000D+00  E=-4.313288D-01  Symmetry=b1

 Vector   25  Occ=2.000000D+00  E=-4.120112D-01  Symmetry=b2

 Vector   26  Occ=2.000000D+00  E=-4.046479D-01  Symmetry=a1

 Vector   27  Occ=2.000000D+00  E=-3.805660D-01  Symmetry=a2

 Vector   28  Occ=2.000000D+00  E=-2.077632D-01  Symmetry=a1

 Vector   29  Occ=0.000000D+00  E= 4.994563D-02  Symmetry=b2

 Vector   30  Occ=0.000000D+00  E= 1.864779D-01  Symmetry=a1

 Vector   31  Occ=0.000000D+00  E= 2.035304D-01  Symmetry=a1

 Vector   32  Occ=0.000000D+00  E= 2.101729D-01  Symmetry=b1

 Vector   33  Occ=0.000000D+00  E= 2.308738D-01  Symmetry=b2

 Vector   34  Occ=0.000000D+00  E= 2.437758D-01  Symmetry=a1

 Vector   35  Occ=0.000000D+00  E= 2.532731D-01  Symmetry=b2

 Vector   36  Occ=0.000000D+00  E= 2.547306D-01  Symmetry=a2

 Vector   37  Occ=0.000000D+00  E= 2.654364D-01  Symmetry=b2

 Vector   38  Occ=0.000000D+00  E= 2.688891D-01  Symmetry=a1

 Vector   39  Occ=0.000000D+00  E= 2.692582D-01  Symmetry=b1

 Vector   40  Occ=0.000000D+00  E= 3.321974D-01  Symmetry=b2

 Vector   41  Occ=0.000000D+00  E= 3.756857D-01  Symmetry=a2

 Vector   42  Occ=0.000000D+00  E= 3.759524D-01  Symmetry=b1

 Vector   43  Occ=0.000000D+00  E= 4.098610D-01  Symmetry=b2

 Vector   44  Occ=0.000000D+00  E= 4.210814D-01  Symmetry=a2

 Vector   45  Occ=0.000000D+00  E= 4.309113D-01  Symmetry=a1

 Vector   46  Occ=0.000000D+00  E= 5.138603D-01  Symmetry=a2

         Total SCF energy =   -307.272469651522

 Vector    9  Occ=2.000000D+00  E=-1.221295D+00  Symmetry=a1

 Vector   10  Occ=2.000000D+00  E=-1.024072D+00  Symmetry=b2

 Vector   11  Occ=2.000000D+00  E=-9.683822D-01  Symmetry=b1

 Vector   12  Occ=2.000000D+00  E=-9.347778D-01  Symmetry=a1

 Vector   13  Occ=2.000000D+00  E=-7.872062D-01  Symmetry=b2

 Vector   14  Occ=2.000000D+00  E=-7.844234D-01  Symmetry=a2

 Vector   15  Occ=2.000000D+00  E=-7.567080D-01  Symmetry=a1

 Vector   16  Occ=2.000000D+00  E=-7.004363D-01  Symmetry=a1

 Vector   17  Occ=2.000000D+00  E=-6.514678D-01  Symmetry=b2

 Vector   18  Occ=2.000000D+00  E=-6.080042D-01  Symmetry=a1

 Vector   19  Occ=2.000000D+00  E=-6.059459D-01  Symmetry=b2

 Vector   20  Occ=2.000000D+00  E=-5.755537D-01  Symmetry=b1

 Vector   21  Occ=2.000000D+00  E=-5.371663D-01  Symmetry=b1

 Vector   22  Occ=2.000000D+00  E=-5.289416D-01  Symmetry=a1

 Vector   23  Occ=2.000000D+00  E=-4.423456D-01  Symmetry=a2

 Vector   24  Occ=2.000000D+00  E=-4.312016D-01  Symmetry=b1

 Vector   25  Occ=2.000000D+00  E=-4.123424D-01  Symmetry=b2

 Vector   26  Occ=2.000000D+00  E=-4.047072D-01  Symmetry=a1

 Vector   27  Occ=2.000000D+00  E=-3.825348D-01  Symmetry=a2

 Vector   28  Occ=2.000000D+00  E=-2.078109D-01  Symmetry=a1

 Vector   29  Occ=0.000000D+00  E= 5.048437D-02  Symmetry=b2

 Vector   30  Occ=0.000000D+00  E= 1.863411D-01  Symmetry=a1

 Vector   31  Occ=0.000000D+00  E= 2.036134D-01  Symmetry=a1

 Vector   32  Occ=0.000000D+00  E= 2.103556D-01  Symmetry=b1

 Vector   33  Occ=0.000000D+00  E= 2.309865D-01  Symmetry=b2

 Vector   34  Occ=0.000000D+00  E= 2.436843D-01  Symmetry=a1

 Vector   35  Occ=0.000000D+00  E= 2.532790D-01  Symmetry=b2

 Vector   36  Occ=0.000000D+00  E= 2.547007D-01  Symmetry=a2

 Vector   37  Occ=0.000000D+00  E= 2.653051D-01  Symmetry=b2

 Vector   38  Occ=0.000000D+00  E= 2.690141D-01  Symmetry=a1

 Vector   39  Occ=0.000000D+00  E= 2.697314D-01  Symmetry=b1

 Vector   40  Occ=0.000000D+00  E= 3.318076D-01  Symmetry=b2

 Vector   41  Occ=0.000000D+00  E= 3.753731D-01  Symmetry=b1

 Vector   42  Occ=0.000000D+00  E= 3.758611D-01  Symmetry=a2

 Vector   43  Occ=0.000000D+00  E= 4.100739D-01  Symmetry=b2

 Vector   44  Occ=0.000000D+00  E= 4.210008D-01  Symmetry=a2

 Vector   45  Occ=0.000000D+00  E= 4.308713D-01  Symmetry=a1

 Vector   46  Occ=0.000000D+00  E= 5.140603D-01  Symmetry=a2

       Multipole analysis of the density wrt the origin
       ------------------------------------------------

     L   x y z        total         open         nuclear
     -   - - -        -----         ----         -------
     0   0 0 0     -0.000000      0.000000     56.000000

     1   1 0 0     -0.000000      0.000000      0.000000
     1   0 1 0      0.000000      0.000000      0.000000
     1   0 0 1      0.080904      0.000000      0.070628

     2   2 0 0    -35.292763      0.000000    163.263019
     2   1 1 0     -0.000000      0.000000      0.000000
     2   1 0 1      0.000000      0.000000     -0.000000
     2   0 2 0    -35.610825      0.000000    201.383079
     2   0 1 1      0.000000      0.000000      0.000000

@    1    -308.46391678  2.2D-09  0.00001  0.00000  0.00000  0.00001  89376.7
@    1    -308.46391678  2.2D-09  0.00001  0.00000  0.00000  0.00001  89376.7

 Output coordinates in angstroms (scale by  1.889725989 to convert to a.u.)

  No.       Tag          Charge          X              Y              Z
 ---- ---------------- ---------- -------------- -------------- --------------
    1 H                    1.0000     2.05734315    -1.32981314     0.02497121
    2 C                    6.0000     1.09521050    -0.79607308    -0.03872712
    3 H                    1.0000     2.05734315     1.32981314     0.02497121
    4 C                    6.0000     1.09521050     0.79607308    -0.03872712
    5 H                    1.0000     0.00000000    -1.59258501    -2.05036145
    6 C                    6.0000     0.00000000    -1.20794635    -1.02589851
    7 H                    1.0000     0.00000000     1.59258501    -2.05036145
    8 C                    6.0000     0.00000000     1.20794635    -1.02589851
    9 H                    1.0000     0.00000000    -1.45029216     1.97989859
   10 C                    6.0000     0.00000000    -0.78107108     1.10677260
   11 H                    1.0000     0.00000000     1.45029216     1.97989859
   12 C                    6.0000     0.00000000     0.78107108     1.10677260
   13 H                    1.0000    -2.05734315    -1.32981314     0.02497121
   14 C                    6.0000    -1.09521050    -0.79607308    -0.03872712
   15 H                    1.0000    -2.05734315     1.32981314     0.02497121
   16 C                    6.0000    -1.09521050     0.79607308    -0.03872712

 Total times  cpu:   144698.2s     wall:    89376.7s
