         Total SCF energy =   -307.272265613289
         Total SCF energy =   -307.272112401031
         Total SCF energy =   -307.272391395319
         Total SCF energy =   -307.272732781170
         Total SCF energy =   -307.271762052450
         Total SCF energy =   -307.272226634294
         Total SCF energy =   -307.272292487419
         Total SCF energy =   -307.272103727690
         Total SCF energy =   -307.272402970145
         Total SCF energy =   -307.272345031606
         Total SCF energy =   -307.272180578146
         Total SCF energy =   -307.272433852968
         Total SCF energy =   -307.272027522149
         Total SCF energy =   -307.272169382078
         Total SCF energy =   -307.272346089409
         Total SCF energy =   -307.271747328887
         Total SCF energy =   -307.272713556870
         Total SCF energy =   -307.272159031641
         Total SCF energy =   -307.272310075913
         Total SCF energy =   -307.270980981630
         Total SCF energy =   -307.273544675507
         Total SCF energy =   -307.271942870444
         Total SCF energy =   -307.272523716381
         Total SCF energy =   -307.272155430929
         Total SCF energy =   -307.272301207633
         Total SCF energy =   -307.272036465157
         Total SCF energy =   -307.272469431434
@ Step       Energy      Delta E   Gmax     Grms     Xrms     Xmax   Walltime
@ ---- ---------------- -------- -------- -------- -------- -------- --------
@    0    -308.46391391  0.0D+00  0.00001  0.00000  0.00000  0.00000 131801.7
         Total SCF energy =   -307.272264950303
         Total SCF energy =   -307.272111737804
         Total SCF energy =   -307.272390732611
         Total SCF energy =   -307.272732104938
         Total SCF energy =   -307.271761402900
         Total SCF energy =   -307.272225970888
         Total SCF energy =   -307.272291824900
         Total SCF energy =   -307.272103047693
         Total SCF energy =   -307.272402324448
         Total SCF energy =   -307.272344364455
         Total SCF energy =   -307.272179919463
         Total SCF energy =   -307.272433181035
         Total SCF energy =   -307.272026868681
         Total SCF energy =   -307.272168704048
         Total SCF energy =   -307.272345441880
         Total SCF energy =   -307.271746655809
         Total SCF energy =   -307.272712904311
         Total SCF energy =   -307.272158382930
         Total SCF energy =   -307.272309399078
         Total SCF energy =   -307.270980319863
         Total SCF energy =   -307.273544011454
         Total SCF energy =   -307.271942197271
         Total SCF energy =   -307.272523063995
         Total SCF energy =   -307.272154772357
         Total SCF energy =   -307.272300540805

 Vector   43  Occ=0.000000D+00  E= 4.099408D-01  Symmetry=b2

 Vector   44  Occ=0.000000D+00  E= 4.211157D-01  Symmetry=a2

 Vector   45  Occ=0.000000D+00  E= 4.310768D-01  Symmetry=a1

 Vector   46  Occ=0.000000D+00  E= 5.143086D-01  Symmetry=a2

         Total SCF energy =   -307.272035806261

 Vector    9  Occ=2.000000D+00  E=-1.220984D+00  Symmetry=a1

 Vector   10  Occ=2.000000D+00  E=-1.024360D+00  Symmetry=b2

 Vector   11  Occ=2.000000D+00  E=-9.682286D-01  Symmetry=b1

 Vector   12  Occ=2.000000D+00  E=-9.350214D-01  Symmetry=a1

 Vector   13  Occ=2.000000D+00  E=-7.870844D-01  Symmetry=b2

 Vector   14  Occ=2.000000D+00  E=-7.844825D-01  Symmetry=a2

 Vector   15  Occ=2.000000D+00  E=-7.567914D-01  Symmetry=a1

 Vector   16  Occ=2.000000D+00  E=-7.002784D-01  Symmetry=a1

 Vector   17  Occ=2.000000D+00  E=-6.514130D-01  Symmetry=b2

 Vector   18  Occ=2.000000D+00  E=-6.078251D-01  Symmetry=a1

 Vector   19  Occ=2.000000D+00  E=-6.059980D-01  Symmetry=b2

 Vector   20  Occ=2.000000D+00  E=-5.743327D-01  Symmetry=b1

 Vector   21  Occ=2.000000D+00  E=-5.384283D-01  Symmetry=b1

 Vector   22  Occ=2.000000D+00  E=-5.294778D-01  Symmetry=a1

 Vector   23  Occ=2.000000D+00  E=-4.440754D-01  Symmetry=a2

 Vector   24  Occ=2.000000D+00  E=-4.313299D-01  Symmetry=b1

 Vector   25  Occ=2.000000D+00  E=-4.120112D-01  Symmetry=b2

 Vector   26  Occ=2.000000D+00  E=-4.046488D-01  Symmetry=a1

 Vector   27  Occ=2.000000D+00  E=-3.805656D-01  Symmetry=a2

 Vector   28  Occ=2.000000D+00  E=-2.077640D-01  Symmetry=a1

 Vector   29  Occ=0.000000D+00  E= 4.994587D-02  Symmetry=b2

 Vector   30  Occ=0.000000D+00  E= 1.864769D-01  Symmetry=a1

 Vector   31  Occ=0.000000D+00  E= 2.035313D-01  Symmetry=a1

 Vector   32  Occ=0.000000D+00  E= 2.101732D-01  Symmetry=b1

 Vector   33  Occ=0.000000D+00  E= 2.308745D-01  Symmetry=b2

 Vector   34  Occ=0.000000D+00  E= 2.437863D-01  Symmetry=a1

 Vector   35  Occ=0.000000D+00  E= 2.532887D-01  Symmetry=b2

 Vector   36  Occ=0.000000D+00  E= 2.547333D-01  Symmetry=a2

 Vector   37  Occ=0.000000D+00  E= 2.654320D-01  Symmetry=b2

 Vector   38  Occ=0.000000D+00  E= 2.688922D-01  Symmetry=a1

 Vector   39  Occ=0.000000D+00  E= 2.692586D-01  Symmetry=b1

 Vector   40  Occ=0.000000D+00  E= 3.321987D-01  Symmetry=b2

 Vector   41  Occ=0.000000D+00  E= 3.756858D-01  Symmetry=a2

 Vector   42  Occ=0.000000D+00  E= 3.759524D-01  Symmetry=b1

 Vector   43  Occ=0.000000D+00  E= 4.098677D-01  Symmetry=b2

 Vector   44  Occ=0.000000D+00  E= 4.210848D-01  Symmetry=a2

 Vector   45  Occ=0.000000D+00  E= 4.309136D-01  Symmetry=a1

 Vector   46  Occ=0.000000D+00  E= 5.138613D-01  Symmetry=a2

         Total SCF energy =   -307.272468764567

 Vector    9  Occ=2.000000D+00  E=-1.221295D+00  Symmetry=a1

 Vector   10  Occ=2.000000D+00  E=-1.024072D+00  Symmetry=b2

 Vector   11  Occ=2.000000D+00  E=-9.683822D-01  Symmetry=b1

 Vector   12  Occ=2.000000D+00  E=-9.347786D-01  Symmetry=a1

 Vector   13  Occ=2.000000D+00  E=-7.872064D-01  Symmetry=b2

 Vector   14  Occ=2.000000D+00  E=-7.844230D-01  Symmetry=a2

 Vector   15  Occ=2.000000D+00  E=-7.567084D-01  Symmetry=a1

 Vector   16  Occ=2.000000D+00  E=-7.004371D-01  Symmetry=a1

 Vector   17  Occ=2.000000D+00  E=-6.514684D-01  Symmetry=b2

 Vector   18  Occ=2.000000D+00  E=-6.080043D-01  Symmetry=a1

 Vector   19  Occ=2.000000D+00  E=-6.059460D-01  Symmetry=b2

 Vector   20  Occ=2.000000D+00  E=-5.755538D-01  Symmetry=b1

 Vector   21  Occ=2.000000D+00  E=-5.371663D-01  Symmetry=b1

 Vector   22  Occ=2.000000D+00  E=-5.289427D-01  Symmetry=a1

 Vector   23  Occ=2.000000D+00  E=-4.423452D-01  Symmetry=a2

 Vector   24  Occ=2.000000D+00  E=-4.312016D-01  Symmetry=b1

 Vector   25  Occ=2.000000D+00  E=-4.123418D-01  Symmetry=b2

 Vector   26  Occ=2.000000D+00  E=-4.047079D-01  Symmetry=a1

 Vector   27  Occ=2.000000D+00  E=-3.825341D-01  Symmetry=a2

 Vector   28  Occ=2.000000D+00  E=-2.078104D-01  Symmetry=a1

 Vector   29  Occ=0.000000D+00  E= 5.048550D-02  Symmetry=b2

 Vector   30  Occ=0.000000D+00  E= 1.863403D-01  Symmetry=a1

 Vector   31  Occ=0.000000D+00  E= 2.036147D-01  Symmetry=a1

 Vector   32  Occ=0.000000D+00  E= 2.103562D-01  Symmetry=b1

 Vector   33  Occ=0.000000D+00  E= 2.309870D-01  Symmetry=b2

 Vector   34  Occ=0.000000D+00  E= 2.436948D-01  Symmetry=a1

 Vector   35  Occ=0.000000D+00  E= 2.532953D-01  Symmetry=b2

 Vector   36  Occ=0.000000D+00  E= 2.547035D-01  Symmetry=a2

 Vector   37  Occ=0.000000D+00  E= 2.653006D-01  Symmetry=b2

 Vector   38  Occ=0.000000D+00  E= 2.690174D-01  Symmetry=a1

 Vector   39  Occ=0.000000D+00  E= 2.697322D-01  Symmetry=b1

 Vector   40  Occ=0.000000D+00  E= 3.318091D-01  Symmetry=b2

 Vector   41  Occ=0.000000D+00  E= 3.753739D-01  Symmetry=b1

 Vector   42  Occ=0.000000D+00  E= 3.758619D-01  Symmetry=a2

 Vector   43  Occ=0.000000D+00  E= 4.100812D-01  Symmetry=b2

 Vector   44  Occ=0.000000D+00  E= 4.210051D-01  Symmetry=a2

 Vector   45  Occ=0.000000D+00  E= 4.308743D-01  Symmetry=a1

 Vector   46  Occ=0.000000D+00  E= 5.140620D-01  Symmetry=a2

       Multipole analysis of the density wrt the origin
       ------------------------------------------------

     L   x y z        total         open         nuclear
     -   - - -        -----         ----         -------
     0   0 0 0      0.000000      0.000000     56.000000

     1   1 0 0     -0.000000      0.000000      0.000000
     1   0 1 0     -0.000000      0.000000      0.000000
     1   0 0 1      0.080920      0.000000      0.070632

     2   2 0 0    -35.292732      0.000000    163.262785
     2   1 1 0      0.000000      0.000000      0.000000
     2   1 0 1      0.000000      0.000000      0.000000
     2   0 2 0    -35.610778      0.000000    201.382432
     2   0 1 1     -0.000000      0.000000     -0.000000

@    1    -308.46391390  3.6D-09  0.00001  0.00000  0.00000  0.00001 267526.9
@    1    -308.46391390  3.6D-09  0.00001  0.00000  0.00000  0.00001 267526.9

 Output coordinates in angstroms (scale by  1.889725989 to convert to a.u.)

  No.       Tag          Charge          X              Y              Z
 ---- ---------------- ---------- -------------- -------------- --------------
    1 H                    1.0000     2.05734129    -1.32981120     0.02496974
    2 C                    6.0000     1.09520984    -0.79607173    -0.03872782
    3 H                    1.0000     2.05734129     1.32981120     0.02496974
    4 C                    6.0000     1.09520984     0.79607173    -0.03872782
    5 H                    1.0000     0.00000000    -1.59258557    -2.05035614
    6 C                    6.0000     0.00000000    -1.20794408    -1.02589691
    7 H                    1.0000     0.00000000     1.59258557    -2.05035614
    8 C                    6.0000     0.00000000     1.20794408    -1.02589691
    9 H                    1.0000     0.00000000    -1.45028854     1.97989592
   10 C                    6.0000     0.00000000    -0.78106969     1.10677261
   11 H                    1.0000     0.00000000     1.45028854     1.97989592
   12 C                    6.0000     0.00000000     0.78106969     1.10677261
   13 H                    1.0000    -2.05734129    -1.32981120     0.02496974
   14 C                    6.0000    -1.09520984    -0.79607173    -0.03872782
   15 H                    1.0000    -2.05734129     1.32981120     0.02496974
   16 C                    6.0000    -1.09520984     0.79607173    -0.03872782

 Total times  cpu:   142926.6s     wall:   267527.1s
