                         Program Version 4.0.0 -  RELEASE  -
|  1> # ================================================================
|  2> # Orca input file for cubane RI-MP2/cc-pVTZ geometry optimization
|  3> # ================================================================
|  4> ! RI-MP2 cc-pVTZ cc-pVTZ/C TightSCF TightOPT UseSym
|  5> ! PAL4
|  6>
|  7> * xyz 0 3
|  8>   H                     2.04592467    -1.27250530     0.01440655
|  9>   C                     1.06719732    -0.80539605    -0.05671004
| 10>   H                     2.04592467     1.27250530     0.01440655
| 11>   C                     1.06719732     0.80539605    -0.05671004
| 12>   H                     0.00000000    -1.52648170    -2.03483303
| 13>   C                     0.00000000    -1.31664326    -0.97321859
| 14>   H                     0.00000000     1.52648170    -2.03483303
| 15>   C                     0.00000000     1.31664326    -0.97321859
| 16>   H                     0.00000000    -1.44747020     1.94363256
| 17>   C                     0.00000000    -0.77177772     1.09450033
| 18>   H                     0.00000000     1.44747020     1.94363256
| 19>   C                     0.00000000     0.77177772     1.09450033
| 20>   H                    -2.04592467    -1.27250530     0.01440655
| 21>   C                    -1.06719732    -0.80539605    -0.05671004
| 22>   H                    -2.04592467     1.27250530     0.01440655
| 23>   C                    -1.06719732     0.80539605    -0.05671004
| 24> *
| 25>
| 26>                          ****END OF INPUT****
 Total Charge           Charge          ....    0
 Multiplicity           Mult            ....    3
 Number of Electrons    NEL             ....   56
MP2 TOTAL ENERGY:     -308.702958662 Eh
FINAL SINGLE POINT ENERGY      -308.702958662498
MP2 TOTAL ENERGY:     -308.702957088 Eh
FINAL SINGLE POINT ENERGY      -308.702957087504
                    ***********************HURRAY********************

CARTESIAN COORDINATES (ANGSTROEM)
---------------------------------
  H      2.045915    1.272685   -0.013828
  C      1.067326    0.805281    0.057376
  H      2.045915   -1.272685   -0.013828
  C      1.067326   -0.805281    0.057376
  H      0.000000    1.526751    2.035273
  C      0.000000    1.316366    0.973946
  H     -0.000000   -1.526751    2.035273
  C     -0.000000   -1.316366    0.973946
  H     -0.000000    1.446849   -1.943188
  C     -0.000000    0.771577   -1.093755
  H      0.000000   -1.446849   -1.943188
  C      0.000000   -0.771577   -1.093755
  H     -2.045915    1.272685   -0.013828
  C     -1.067326    0.805281    0.057376
  H     -2.045915   -1.272685   -0.013828
  C     -1.067326   -0.805281    0.057376

 Multiplicity           Mult            ....    3
 Number of Electrons    NEL             ....   56
 Basis Dimension        Dim             ....  352

ORBITAL ENERGIES
----------------
                 SPIN UP ORBITALS
  NO   OCC          E(Eh)            E(eV)    Irrep
   0   1.0000     -11.229653      -305.5744    1-A1
   1   1.0000     -11.229461      -305.5692    1-B1
   2   1.0000     -11.229290      -305.5645    1-B2
   3   1.0000     -11.229015      -305.5570    1-A2
   4   1.0000     -11.228041      -305.5305    2-A1
   5   1.0000     -11.227977      -305.5288    2-B2
   6   1.0000     -11.226263      -305.4822    3-A1
   7   1.0000     -11.225712      -305.4671    3-B2
   8   1.0000      -1.234824       -33.6013    4-A1
   9   1.0000      -1.063378       -28.9360    4-B2
  10   1.0000      -0.967416       -26.3247    2-B1
  11   1.0000      -0.954681       -25.9782    5-A1
  12   1.0000      -0.810452       -22.0535    5-B2
  13   1.0000      -0.790665       -21.5151    2-A2
  14   1.0000      -0.772492       -21.0206    6-A1
  15   1.0000      -0.710219       -19.3261    7-A1
  16   1.0000      -0.657625       -17.8949    6-B2
  17   1.0000      -0.637403       -17.3446    8-A1
  18   1.0000      -0.617377       -16.7997    7-B2
  19   1.0000      -0.578210       -15.7339    3-B1
  20   1.0000      -0.553122       -15.0512    9-A1
  21   1.0000      -0.530946       -14.4478    4-B1
  22   1.0000      -0.454730       -12.3738    3-A2
  23   1.0000      -0.440501       -11.9866    5-B1
  24   1.0000      -0.414825       -11.2880    8-B2
  25   1.0000      -0.414145       -11.2694   10-A1
  26   1.0000      -0.381890       -10.3918    4-A2
  27   1.0000      -0.366249        -9.9661    9-B2
  28   1.0000      -0.299238        -8.1427   11-A1
  29   0.0000       0.146534         3.9874   12-A1
  30   0.0000       0.159702         4.3457   13-A1
  31   0.0000       0.163270         4.4428    6-B1
  32   0.0000       0.180749         4.9184   10-B2
  33   0.0000       0.192007         5.2248   14-A1

                 SPIN DOWN ORBITALS
  NO   OCC          E(Eh)            E(eV)    Irrep
   0   1.0000     -11.230104      -305.5867    1-A1
   1   1.0000     -11.230080      -305.5860    1-B1
   2   1.0000     -11.229685      -305.5753    1-B2
   3   1.0000     -11.229658      -305.5745    1-A2
   4   1.0000     -11.225006      -305.4479    2-A1
   5   1.0000     -11.224459      -305.4331    2-B2
   6   1.0000     -11.204387      -304.8869    3-B2
   7   1.0000     -11.204385      -304.8868    3-A1
   8   1.0000      -1.216694       -33.1079    4-A1
   9   1.0000      -1.023010       -27.8375    4-B2
  10   1.0000      -0.959940       -26.1213    2-B1
  11   1.0000      -0.915033       -24.8993    5-A1
  12   1.0000      -0.787763       -21.4361    2-A2
  13   1.0000      -0.771888       -21.0042    5-B2
  14   1.0000      -0.737488       -20.0681    6-A1
  15   1.0000      -0.698549       -19.0085    7-A1
  16   1.0000      -0.643862       -17.5204    6-B2
  17   1.0000      -0.610361       -16.6088    8-A1
  18   1.0000      -0.608934       -16.5699    7-B2
  19   1.0000      -0.573018       -15.5926    3-B1
  20   1.0000      -0.521680       -14.1956    4-B1
  21   1.0000      -0.497592       -13.5402    9-A1
  22   1.0000      -0.439940       -11.9714    3-A2
  23   1.0000      -0.422744       -11.5035    5-B1
  24   1.0000      -0.405959       -11.0467    8-B2
  25   1.0000      -0.402969       -10.9654   10-A1
  26   1.0000      -0.380360       -10.3501    4-A2
  27   0.0000       0.114508         3.1159    9-B2
  28   0.0000       0.131480         3.5778   11-A1
  29   0.0000       0.152667         4.1543   12-A1
  30   0.0000       0.164262         4.4698    6-B1
  31   0.0000       0.173507         4.7214   13-A1

MULLIKEN ATOMIC CHARGES AND SPIN DENSITIES
------------------------------------------
   0 H :    0.144865    0.013109
   1 C :   -0.065629    0.009741
   2 H :    0.144865    0.013109
   3 C :   -0.065629    0.009741
   4 H :    0.167887   -0.016353
   5 C :   -0.291222    0.954889
   6 H :    0.167887   -0.016353
   7 C :   -0.291222    0.954889
   8 H :    0.152890    0.001135
   9 C :   -0.188028    0.014630
  10 H :    0.152890    0.001135
  11 C :   -0.188028    0.014630
  12 H :    0.144865    0.013109
  13 C :   -0.065629    0.009741
  14 H :    0.144865    0.013109
  15 C :   -0.065629    0.009741
Sum of atomic charges       :    0.0000000

LOEWDIN ATOMIC CHARGES AND SPIN DENSITIES
-----------------------------------------
   0 H :   -0.045415    0.010444
   1 C :    0.024793    0.101833
   2 H :   -0.045415    0.010444
   3 C :    0.024793    0.101833
   4 H :   -0.078158    0.054182
   5 C :    0.113083    0.705842
   6 H :   -0.078158    0.054182
   7 C :    0.113083    0.705842
   8 H :   -0.054036    0.001621
   9 C :    0.060357    0.013800
  10 H :   -0.054036    0.001621
  11 C :    0.060357    0.013800
  12 H :   -0.045415    0.010444
  13 C :    0.024793    0.101833
  14 H :   -0.045415    0.010444
  15 C :    0.024793    0.101833

  Mayer bond orders larger than 0.1
B(  0-H ,  1-C ) :   0.9060 B(  1-C ,  3-C ) :   0.8600 B(  1-C ,  5-C ) :   0.9405
B(  1-C ,  9-C ) :   0.8903 B(  2-H ,  3-C ) :   0.9060 B(  3-C ,  7-C ) :   0.9405
B(  3-C , 11-C ) :   0.8903 B(  4-H ,  5-C ) :   0.9100 B(  5-C , 13-C ) :   0.9405
B(  6-H ,  7-C ) :   0.9100 B(  7-C , 15-C ) :   0.9405 B(  8-H ,  9-C ) :   0.8997
B(  9-C , 11-C ) :   0.8446 B(  9-C , 13-C ) :   0.8903 B( 10-H , 11-C ) :   0.8997
B( 11-C , 15-C ) :   0.8903 B( 12-H , 13-C ) :   0.9060 B( 13-C , 15-C ) :   0.8600
B( 14-H , 15-C ) :   0.9060

MP2 TOTAL ENERGY:     -308.702961525 Eh
FINAL SINGLE POINT ENERGY      -308.702961524783

DIPOLE MOMENT
-------------
                                X             Y             Z
Electronic contribution:     -0.00000      -0.00000      -0.18601
Nuclear contribution   :      0.00000      -0.00000       0.12028
                        -----------------------------------------
Total Dipole Moment    :     -0.00000      -0.00000      -0.06573
                        -----------------------------------------
Magnitude (a.u.)       :      0.06573
Magnitude (Debye)      :      0.16707

                             ****ORCA TERMINATED NORMALLY****
TOTAL RUN TIME: 0 days 0 hours 24 minutes 42 seconds 531 msec
