         Total SCF energy =   -307.491413632182

 Vector   29  Occ=0.000000D+00  E= 1.586798D-01  Symmetry=a1g

 Vector   30  Occ=0.000000D+00  E= 1.624604D-01  Symmetry=t1u

 Vector   31  Occ=0.000000D+00  E= 1.624604D-01  Symmetry=t1u

 Vector   32  Occ=0.000000D+00  E= 1.624604D-01  Symmetry=t1u

 Vector   33  Occ=0.000000D+00  E= 2.021853D-01  Symmetry=t2g

 Vector   34  Occ=0.000000D+00  E= 2.021853D-01  Symmetry=t2g

 Vector   35  Occ=0.000000D+00  E= 2.021853D-01  Symmetry=t2g

 Vector   36  Occ=0.000000D+00  E= 2.211602D-01  Symmetry=t1u

 Vector   37  Occ=0.000000D+00  E= 2.211602D-01  Symmetry=t1u

 Vector   38  Occ=0.000000D+00  E= 2.211602D-01  Symmetry=t1u

 Vector   39  Occ=0.000000D+00  E= 2.294294D-01  Symmetry=a2u

 Vector   40  Occ=0.000000D+00  E= 2.984699D-01  Symmetry=eg

 Vector   41  Occ=0.000000D+00  E= 2.984699D-01  Symmetry=eg

 Vector   42  Occ=0.000000D+00  E= 3.218514D-01  Symmetry=t2g

 Vector   43  Occ=0.000000D+00  E= 3.218514D-01  Symmetry=t2g

 Vector   44  Occ=0.000000D+00  E= 3.218514D-01  Symmetry=t2g

 Vector   45  Occ=0.000000D+00  E= 3.372998D-01  Symmetry=t1g

 Vector   46  Occ=0.000000D+00  E= 3.372998D-01  Symmetry=t1g

 Vector   47  Occ=0.000000D+00  E= 3.372998D-01  Symmetry=t1g

 Vector   48  Occ=0.000000D+00  E= 3.532331D-01  Symmetry=a1g

 Vector   49  Occ=0.000000D+00  E= 3.665567D-01  Symmetry=t2u

 Vector   50  Occ=0.000000D+00  E= 3.665567D-01  Symmetry=t2u

 Vector   51  Occ=0.000000D+00  E= 3.665567D-01  Symmetry=t2u

 Vector   52  Occ=0.000000D+00  E= 4.344458D-01  Symmetry=t1u

 Vector   53  Occ=0.000000D+00  E= 4.344458D-01  Symmetry=t1u

 Vector   54  Occ=0.000000D+00  E= 4.344458D-01  Symmetry=t1u

 Vector   55  Occ=0.000000D+00  E= 4.598913D-01  Symmetry=eu

 Vector   56  Occ=0.000000D+00  E= 4.598913D-01  Symmetry=eu

 Vector   57  Occ=0.000000D+00  E= 4.806588D-01  Symmetry=a1g

 Vector   58  Occ=0.000000D+00  E= 5.534821D-01  Symmetry=t1u

@ Step       Energy      Delta E   Gmax     Grms     Xrms     Xmax   Walltime
@ ---- ---------------- -------- -------- -------- -------- -------- --------
@    0    -307.49141363  0.0D+00  0.00005  0.00002  0.00000  0.00000    154.0
         Total SCF energy =   -307.491413710177

 Vector    9  Occ=2.000000D+00  E=-1.251738D+00  Symmetry=a1g

 Vector   10  Occ=2.000000D+00  E=-9.821023D-01  Symmetry=t1u

 Vector   11  Occ=2.000000D+00  E=-9.821023D-01  Symmetry=t1u

 Vector   12  Occ=2.000000D+00  E=-9.821023D-01  Symmetry=t1u

 Vector   13  Occ=2.000000D+00  E=-7.688790D-01  Symmetry=t2g

 Vector   14  Occ=2.000000D+00  E=-7.688790D-01  Symmetry=t2g

 Vector   15  Occ=2.000000D+00  E=-7.688790D-01  Symmetry=t2g

 Vector   16  Occ=2.000000D+00  E=-7.145484D-01  Symmetry=a1g

 Vector   17  Occ=2.000000D+00  E=-6.416646D-01  Symmetry=a2u

 Vector   18  Occ=2.000000D+00  E=-5.837765D-01  Symmetry=eg

 Vector   19  Occ=2.000000D+00  E=-5.837765D-01  Symmetry=eg

 Vector   20  Occ=2.000000D+00  E=-5.826687D-01  Symmetry=t1u

 Vector   21  Occ=2.000000D+00  E=-5.826687D-01  Symmetry=t1u

 Vector   22  Occ=2.000000D+00  E=-5.826687D-01  Symmetry=t1u

 Vector   23  Occ=2.000000D+00  E=-3.917398D-01  Symmetry=t2u

 Vector   24  Occ=2.000000D+00  E=-3.917398D-01  Symmetry=t2u

 Vector   25  Occ=2.000000D+00  E=-3.917398D-01  Symmetry=t2u

 Vector   26  Occ=2.000000D+00  E=-3.830754D-01  Symmetry=t2g

 Vector   27  Occ=2.000000D+00  E=-3.830754D-01  Symmetry=t2g

 Vector   28  Occ=2.000000D+00  E=-3.830754D-01  Symmetry=t2g

 Vector   29  Occ=0.000000D+00  E= 1.586976D-01  Symmetry=a1g

 Vector   30  Occ=0.000000D+00  E= 1.624540D-01  Symmetry=t1u

 Vector   31  Occ=0.000000D+00  E= 1.624540D-01  Symmetry=t1u

 Vector   32  Occ=0.000000D+00  E= 1.624540D-01  Symmetry=t1u

 Vector   33  Occ=0.000000D+00  E= 2.021831D-01  Symmetry=t2g

 Vector   34  Occ=0.000000D+00  E= 2.021831D-01  Symmetry=t2g

 Vector   35  Occ=0.000000D+00  E= 2.021831D-01  Symmetry=t2g

 Vector   36  Occ=0.000000D+00  E= 2.211643D-01  Symmetry=t1u

 Vector   37  Occ=0.000000D+00  E= 2.211643D-01  Symmetry=t1u

 Vector   38  Occ=0.000000D+00  E= 2.211643D-01  Symmetry=t1u

 Vector   39  Occ=0.000000D+00  E= 2.294289D-01  Symmetry=a2u

 Vector   40  Occ=0.000000D+00  E= 2.984817D-01  Symmetry=eg

 Vector   41  Occ=0.000000D+00  E= 2.984817D-01  Symmetry=eg

 Vector   42  Occ=0.000000D+00  E= 3.218479D-01  Symmetry=t2g

 Vector   43  Occ=0.000000D+00  E= 3.218479D-01  Symmetry=t2g

 Vector   44  Occ=0.000000D+00  E= 3.218479D-01  Symmetry=t2g

 Vector   45  Occ=0.000000D+00  E= 3.372788D-01  Symmetry=t1g

 Vector   46  Occ=0.000000D+00  E= 3.372788D-01  Symmetry=t1g

 Vector   47  Occ=0.000000D+00  E= 3.372788D-01  Symmetry=t1g

 Vector   48  Occ=0.000000D+00  E= 3.532231D-01  Symmetry=a1g

 Vector   49  Occ=0.000000D+00  E= 3.665623D-01  Symmetry=t2u

 Vector   50  Occ=0.000000D+00  E= 3.665623D-01  Symmetry=t2u

 Vector   51  Occ=0.000000D+00  E= 3.665623D-01  Symmetry=t2u

 Vector   52  Occ=0.000000D+00  E= 4.344338D-01  Symmetry=t1u

 Vector   53  Occ=0.000000D+00  E= 4.344338D-01  Symmetry=t1u

 Vector   54  Occ=0.000000D+00  E= 4.344338D-01  Symmetry=t1u

 Vector   55  Occ=0.000000D+00  E= 4.598691D-01  Symmetry=eu

 Vector   56  Occ=0.000000D+00  E= 4.598691D-01  Symmetry=eu

 Vector   57  Occ=0.000000D+00  E= 4.806949D-01  Symmetry=a1g

 Vector   58  Occ=0.000000D+00  E= 5.534681D-01  Symmetry=t1u

       Multipole analysis of the density wrt the origin
       ------------------------------------------------

     L   x y z        total         open         nuclear
     -   - - -        -----         ----         -------
     0   0 0 0      0.000000      0.000000     56.000000

     1   1 0 0      0.000000      0.000000      0.000000
     1   0 1 0     -0.000000      0.000000      0.000000
     1   0 0 1     -0.000000      0.000000      0.000000

     2   2 0 0    -34.881954      0.000000    160.077750
     2   1 1 0      0.000000      0.000000      0.000000
     2   1 0 1     -0.000000      0.000000      0.000000
     2   0 2 0    -34.881954      0.000000    160.077750
     2   0 1 1     -0.000000      0.000000      0.000000

         Total SCF energy =   -307.491413710177
@    1    -307.49141371 -7.8D-08  0.00001  0.00000  0.00005  0.00008    275.2
@    1    -307.49141371 -7.8D-08  0.00001  0.00000  0.00005  0.00008    275.2

 Output coordinates in angstroms (scale by  1.889725989 to convert to a.u.)

  No.       Tag          Charge          X              Y              Z
 ---- ---------------- ---------- -------------- -------------- --------------
    1 H                    1.0000     1.40174241     1.40174241     1.40174241
    2 H                    1.0000    -1.40174241    -1.40174241     1.40174241
    3 H                    1.0000    -1.40174241     1.40174241    -1.40174241
    4 H                    1.0000     1.40174241    -1.40174241    -1.40174241
    5 H                    1.0000     1.40174241     1.40174241    -1.40174241
    6 H                    1.0000    -1.40174241    -1.40174241    -1.40174241
    7 H                    1.0000     1.40174241    -1.40174241     1.40174241
    8 H                    1.0000    -1.40174241     1.40174241     1.40174241
    9 C                    6.0000     0.77871807     0.77871807     0.77871807
   10 C                    6.0000    -0.77871807    -0.77871807     0.77871807
   11 C                    6.0000    -0.77871807     0.77871807    -0.77871807
   12 C                    6.0000     0.77871807    -0.77871807    -0.77871807
   13 C                    6.0000     0.77871807     0.77871807    -0.77871807
   14 C                    6.0000    -0.77871807    -0.77871807    -0.77871807
   15 C                    6.0000     0.77871807    -0.77871807     0.77871807
   16 C                    6.0000    -0.77871807     0.77871807     0.77871807

 Total times  cpu:      183.6s     wall:      275.3s
