         Total SCF energy =   -307.294851730151
 CCSD total energy / hartree       =      -308.417440425155689
         Total SCF energy =   -307.294810886110
 CCSD total energy / hartree       =      -308.417504440796904
         Total SCF energy =   -307.294876960500
 CCSD total energy / hartree       =      -308.417361454340721
         Total SCF energy =   -307.294810886107
 CCSD total energy / hartree       =      -308.417504440794517
         Total SCF energy =   -307.294876960505
 CCSD total energy / hartree       =      -308.417361454345780
         Total SCF energy =   -307.294810886092
 CCSD total energy / hartree       =      -308.417504440780476
         Total SCF energy =   -307.294876960510
 CCSD total energy / hartree       =      -308.417361454352033
         Total SCF energy =   -307.294696177867
 CCSD total energy / hartree       =      -308.417347062863712
         Total SCF energy =   -307.294939255996
 CCSD total energy / hartree       =      -308.417468703147279
         Total SCF energy =   -307.294696177868
 CCSD total energy / hartree       =      -308.417347062864224
         Total SCF energy =   -307.294939256001
 CCSD total energy / hartree       =      -308.417468703151712
         Total SCF energy =   -307.294696175017
 CCSD total energy / hartree       =      -308.417347059972485
         Total SCF energy =   -307.294939255353
 CCSD total energy / hartree       =      -308.417468702493295
@ Step       Energy      Delta E   Gmax     Grms     Xrms     Xmax   Walltime
@ ---- ---------------- -------- -------- -------- -------- -------- --------
@    0    -308.41744043  0.0D+00  0.00438  0.00094  0.00000  0.00000   2546.5
         Total SCF energy =   -307.294339409484
 CCSD total energy / hartree       =      -308.417651412726173
         Total SCF energy =   -307.294339409484
 CCSD total energy / hartree       =      -308.417651412726173
         Total SCF energy =   -307.294222925510
 CCSD total energy / hartree       =      -308.417640956853290
         Total SCF energy =   -307.294440639160
 CCSD total energy / hartree       =      -308.417647298402755
         Total SCF energy =   -307.294222925512
 CCSD total energy / hartree       =      -308.417640956855337
         Total SCF energy =   -307.294440639153
 CCSD total energy / hartree       =      -308.417647298393490
         Total SCF energy =   -307.294222925626
 CCSD total energy / hartree       =      -308.417640956973855
         Total SCF energy =   -307.294440639153
 CCSD total energy / hartree       =      -308.417647298393831
         Total SCF energy =   -307.294249165583
 CCSD total energy / hartree       =      -308.417623192666554
         Total SCF energy =   -307.294362187592
 CCSD total energy / hartree       =      -308.417615136700761
         Total SCF energy =   -307.294249165604
 CCSD total energy / hartree       =      -308.417623192686165
         Total SCF energy =   -307.294362187361
 CCSD total energy / hartree       =      -308.417615136467930
         Total SCF energy =   -307.294249163588
 CCSD total energy / hartree       =      -308.417623190583072
         Total SCF energy =   -307.294362184384
 CCSD total energy / hartree       =      -308.417615133507866
@    1    -308.41765141 -2.1D-04  0.00019  0.00004  0.00552  0.00779   5295.4
         Total SCF energy =   -307.294361327733
 CCSD total energy / hartree       =      -308.417651856180669
         Total SCF energy =   -307.294361327733
 CCSD total energy / hartree       =      -308.417651856180669
         Total SCF energy =   -307.294247970529
 CCSD total energy / hartree       =      -308.417644477287126
         Total SCF energy =   -307.294459415632
 CCSD total energy / hartree       =      -308.417644636437160
         Total SCF energy =   -307.294247970523
 CCSD total energy / hartree       =      -308.417644477281442
         Total SCF energy =   -307.294459415638
 CCSD total energy / hartree       =      -308.417644636444038
         Total SCF energy =   -307.294247970620
 CCSD total energy / hartree       =      -308.417644477383135
         Total SCF energy =   -307.294459415698
 CCSD total energy / hartree       =      -308.417644636502416
         Total SCF energy =   -307.294267383594
 CCSD total energy / hartree       =      -308.417619960308855
         Total SCF energy =   -307.294387800754
 CCSD total energy / hartree       =      -308.417619237356348
         Total SCF energy =   -307.294267383688
 CCSD total energy / hartree       =      -308.417619960397985
         Total SCF energy =   -307.294387800581

 Vector   43  Occ=0.000000D+00  E= 4.188392D-01  Symmetry=b3g

 Vector   44  Occ=0.000000D+00  E= 4.199737D-01  Symmetry=b1g

 Vector   45  Occ=0.000000D+00  E= 4.199737D-01  Symmetry=b2g

 Vector   46  Occ=0.000000D+00  E= 5.047932D-01  Symmetry=au

 CCSD total energy / hartree       =      -308.417619237187751
         Total SCF energy =   -307.294267381219

 Vector    9  Occ=2.000000D+00  E=-1.255437D+00  Symmetry=ag

 Vector   10  Occ=2.000000D+00  E=-9.876756D-01  Symmetry=b1u

 Vector   11  Occ=2.000000D+00  E=-9.860465D-01  Symmetry=b2u

 Vector   12  Occ=2.000000D+00  E=-9.860465D-01  Symmetry=b3u

 Vector   13  Occ=2.000000D+00  E=-7.729213D-01  Symmetry=b3g

 Vector   14  Occ=2.000000D+00  E=-7.729213D-01  Symmetry=b2g

 Vector   15  Occ=2.000000D+00  E=-7.719145D-01  Symmetry=b1g

 Vector   16  Occ=2.000000D+00  E=-7.143691D-01  Symmetry=ag

 Vector   17  Occ=2.000000D+00  E=-6.447223D-01  Symmetry=au

 Vector   18  Occ=2.000000D+00  E=-5.865603D-01  Symmetry=b1u

 Vector   19  Occ=2.000000D+00  E=-5.854249D-01  Symmetry=b2u

 Vector   20  Occ=2.000000D+00  E=-5.854249D-01  Symmetry=b3u

 Vector   21  Occ=2.000000D+00  E=-5.834909D-01  Symmetry=ag

 Vector   22  Occ=2.000000D+00  E=-5.833532D-01  Symmetry=ag

 Vector   23  Occ=2.000000D+00  E=-3.965473D-01  Symmetry=b1u

 Vector   24  Occ=2.000000D+00  E=-3.951381D-01  Symmetry=b2u

 Vector   25  Occ=2.000000D+00  E=-3.951381D-01  Symmetry=b3u

 Vector   26  Occ=2.000000D+00  E=-3.917235D-01  Symmetry=b3g

 Vector   27  Occ=2.000000D+00  E=-3.917235D-01  Symmetry=b2g

 Vector   28  Occ=2.000000D+00  E=-3.895030D-01  Symmetry=b1g

 Vector   29  Occ=0.000000D+00  E= 1.600007D-01  Symmetry=ag

 Vector   30  Occ=0.000000D+00  E= 1.788319D-01  Symmetry=b1u

 Vector   31  Occ=0.000000D+00  E= 1.794754D-01  Symmetry=b2u

 Vector   32  Occ=0.000000D+00  E= 1.794754D-01  Symmetry=b3u

 Vector   33  Occ=0.000000D+00  E= 2.209728D-01  Symmetry=b1g

 Vector   34  Occ=0.000000D+00  E= 2.210327D-01  Symmetry=b3g

 Vector   35  Occ=0.000000D+00  E= 2.210327D-01  Symmetry=b2g

 Vector   36  Occ=0.000000D+00  E= 2.327120D-01  Symmetry=b1u

 Vector   37  Occ=0.000000D+00  E= 2.339528D-01  Symmetry=b2u

 Vector   38  Occ=0.000000D+00  E= 2.339528D-01  Symmetry=b3u

 Vector   39  Occ=0.000000D+00  E= 2.388215D-01  Symmetry=au

 Vector   40  Occ=0.000000D+00  E= 3.542635D-01  Symmetry=b3g

 Vector   41  Occ=0.000000D+00  E= 3.542636D-01  Symmetry=b2g

 Vector   42  Occ=0.000000D+00  E= 3.555671D-01  Symmetry=b1g

 Vector   43  Occ=0.000000D+00  E= 4.186411D-01  Symmetry=b3g

 Vector   44  Occ=0.000000D+00  E= 4.186411D-01  Symmetry=b2g

 Vector   45  Occ=0.000000D+00  E= 4.197705D-01  Symmetry=b1g

 Vector   46  Occ=0.000000D+00  E= 5.034482D-01  Symmetry=au

 CCSD total energy / hartree       =      -308.417619957858165
         Total SCF energy =   -307.294387797969

 Vector    9  Occ=2.000000D+00  E=-1.257902D+00  Symmetry=ag

 Vector   10  Occ=2.000000D+00  E=-9.881634D-01  Symmetry=b2u

 Vector   11  Occ=2.000000D+00  E=-9.881634D-01  Symmetry=b3u

 Vector   12  Occ=2.000000D+00  E=-9.865223D-01  Symmetry=b1u

 Vector   13  Occ=2.000000D+00  E=-7.727279D-01  Symmetry=b1g

 Vector   14  Occ=2.000000D+00  E=-7.717087D-01  Symmetry=b3g

 Vector   15  Occ=2.000000D+00  E=-7.717087D-01  Symmetry=b2g

 Vector   16  Occ=2.000000D+00  E=-7.143558D-01  Symmetry=ag

 Vector   17  Occ=2.000000D+00  E=-6.432951D-01  Symmetry=au

 Vector   18  Occ=2.000000D+00  E=-5.859920D-01  Symmetry=b2u

 Vector   19  Occ=2.000000D+00  E=-5.859920D-01  Symmetry=b3u

 Vector   20  Occ=2.000000D+00  E=-5.849301D-01  Symmetry=ag

 Vector   21  Occ=2.000000D+00  E=-5.848547D-01  Symmetry=b1u

 Vector   22  Occ=2.000000D+00  E=-5.847899D-01  Symmetry=ag

 Vector   23  Occ=2.000000D+00  E=-3.966708D-01  Symmetry=b2u

 Vector   24  Occ=2.000000D+00  E=-3.966708D-01  Symmetry=b3u

 Vector   25  Occ=2.000000D+00  E=-3.952527D-01  Symmetry=b1u

 Vector   26  Occ=2.000000D+00  E=-3.923241D-01  Symmetry=b1g

 Vector   27  Occ=2.000000D+00  E=-3.901037D-01  Symmetry=b3g

 Vector   28  Occ=2.000000D+00  E=-3.901037D-01  Symmetry=b2g

 Vector   29  Occ=0.000000D+00  E= 1.594509D-01  Symmetry=ag

 Vector   30  Occ=0.000000D+00  E= 1.792999D-01  Symmetry=b2u

 Vector   31  Occ=0.000000D+00  E= 1.792999D-01  Symmetry=b3u

 Vector   32  Occ=0.000000D+00  E= 1.799227D-01  Symmetry=b1u

 Vector   33  Occ=0.000000D+00  E= 2.210612D-01  Symmetry=b3g

 Vector   34  Occ=0.000000D+00  E= 2.210612D-01  Symmetry=b2g

 Vector   35  Occ=0.000000D+00  E= 2.211208D-01  Symmetry=b1g

 Vector   36  Occ=0.000000D+00  E= 2.331014D-01  Symmetry=b2u

 Vector   37  Occ=0.000000D+00  E= 2.331014D-01  Symmetry=b3u

 Vector   38  Occ=0.000000D+00  E= 2.343645D-01  Symmetry=b1u

 Vector   39  Occ=0.000000D+00  E= 2.388194D-01  Symmetry=au

 Vector   40  Occ=0.000000D+00  E= 3.547703D-01  Symmetry=b1g

 Vector   41  Occ=0.000000D+00  E= 3.560706D-01  Symmetry=b3g

 Vector   42  Occ=0.000000D+00  E= 3.560706D-01  Symmetry=b2g

 Vector   43  Occ=0.000000D+00  E= 4.188392D-01  Symmetry=b1g

 Vector   44  Occ=0.000000D+00  E= 4.199737D-01  Symmetry=b3g

 Vector   45  Occ=0.000000D+00  E= 4.199737D-01  Symmetry=b2g

 Vector   46  Occ=0.000000D+00  E= 5.047932D-01  Symmetry=au

       Multipole analysis of the density wrt the origin
       ------------------------------------------------

     L   x y z        total         open         nuclear
     -   - - -        -----         ----         -------
     0   0 0 0     -0.000000      0.000000     56.000000

     1   1 0 0      0.000000      0.000000      0.000000
     1   0 1 0      0.000000      0.000000      0.000000
     1   0 0 1      0.000000      0.000000      0.000000

     2   2 0 0    -35.683894      0.000000    162.529787
     2   1 1 0     -0.000000      0.000000      0.000000
     2   1 0 1      0.000000      0.000000      0.000000
     2   0 2 0    -35.683894      0.000000    162.529788
     2   0 1 1     -0.000000      0.000000      0.000000

 CCSD total energy / hartree       =      -308.417619234569997
@    2    -308.41765186 -4.4D-07  0.00001  0.00000  0.00019  0.00026   8077.7
@    2    -308.41765186 -4.4D-07  0.00001  0.00000  0.00019  0.00026   8077.7

 Output coordinates in angstroms (scale by  1.889725989 to convert to a.u.)

  No.       Tag          Charge          X              Y              Z
 ---- ---------------- ---------- -------------- -------------- --------------
    1 H                    1.0000     1.41458322     1.41458323     1.41458321
    2 H                    1.0000    -1.41458322    -1.41458323     1.41458321
    3 H                    1.0000    -1.41458322     1.41458323    -1.41458321
    4 H                    1.0000     1.41458322    -1.41458323    -1.41458321
    5 H                    1.0000    -1.41458322    -1.41458323    -1.41458321
    6 H                    1.0000     1.41458322     1.41458323    -1.41458321
    7 H                    1.0000     1.41458322    -1.41458323     1.41458321
    8 H                    1.0000    -1.41458322     1.41458323     1.41458321
    9 C                    6.0000     0.78401500     0.78401500     0.78401498
   10 C                    6.0000    -0.78401500    -0.78401500     0.78401498
   11 C                    6.0000    -0.78401500     0.78401500    -0.78401498
   12 C                    6.0000     0.78401500    -0.78401500    -0.78401498
   13 C                    6.0000    -0.78401500    -0.78401500    -0.78401498
   14 C                    6.0000     0.78401500     0.78401500    -0.78401498
   15 C                    6.0000     0.78401500    -0.78401500     0.78401498
   16 C                    6.0000    -0.78401500     0.78401500     0.78401498

 Total times  cpu:     7474.9s     wall:     8077.8s
