                         Program Version 3.0.3 - RELEASE   -
|  1> # ================================================================
|  2> # Orca input file for cubane
|  3> # ================================================================
|  4> ! LPNO-CCSD cc-pVDZ cc-pVDZ/C TightSCF TightOpt
|  5> ! NumGrad
|  6> ! PAL4
|  7>
|  8> * xyz 0 1
|  9>   H                     1.42503470     1.42503470     1.42503472
| 10>   H                    -1.42503470    -1.42503470     1.42503472
| 11>   H                    -1.42503470     1.42503470    -1.42503472
| 12>   H                     1.42503470    -1.42503470    -1.42503472
| 13>   H                    -1.42503470    -1.42503470    -1.42503472
| 14>   H                     1.42503470     1.42503470    -1.42503472
| 15>   H                     1.42503470    -1.42503470     1.42503472
| 16>   H                    -1.42503470     1.42503470     1.42503472
| 17>   C                     0.78961438     0.78961438     0.78961439
| 18>   C                    -0.78961438    -0.78961438     0.78961439
| 19>   C                    -0.78961438     0.78961438    -0.78961439
| 20>   C                     0.78961438    -0.78961438    -0.78961439
| 21>   C                    -0.78961438    -0.78961438    -0.78961439
| 22>   C                     0.78961438     0.78961438    -0.78961439
| 23>   C                     0.78961438    -0.78961438     0.78961439
| 24>   C                    -0.78961438     0.78961438     0.78961439
| 25> *
| 26>
| 27>                          ****END OF INPUT****
 Total Charge           Charge          ....    0
 Multiplicity           Mult            ....    1
 Number of Electrons    NEL             ....   56
E(0)                                       ...   -307.412387415
E(0)                                       ...   -307.412387415
E(CORR)(strong-pairs)                      ...     -1.128030974
E(CORR)(weak-pairs)                        ...     -0.001648962
E(CORR)(corrected)                         ...     -1.129679937
E(TOT)                                     ...   -308.542067352
FINAL SINGLE POINT ENERGY      -308.542067351687
                    ***********************HURRAY********************

CARTESIAN COORDINATES (ANGSTROEM)
---------------------------------
  H      1.425018    1.425018    1.425018
  H     -1.425018   -1.425018    1.425018
  H     -1.425018    1.425018   -1.425018
  H      1.425018   -1.425018   -1.425018
  H     -1.425018   -1.425018   -1.425018
  H      1.425018    1.425018   -1.425018
  H      1.425018   -1.425018    1.425018
  H     -1.425018    1.425018    1.425018
  C      0.789671    0.789671    0.789671
  C     -0.789671   -0.789671    0.789671
  C     -0.789671    0.789671   -0.789671
  C      0.789671   -0.789671   -0.789671
  C     -0.789671   -0.789671   -0.789671
  C      0.789671    0.789671   -0.789671
  C      0.789671   -0.789671    0.789671
  C     -0.789671    0.789671    0.789671

 Multiplicity           Mult            ....    1
 Number of Electrons    NEL             ....   56
 Basis Dimension        Dim             ....  152

ORBITAL ENERGIES
----------------

  NO   OCC          E(Eh)            E(eV)
   0   2.0000     -11.230097      -305.5865
   1   2.0000     -11.229628      -305.5737
   2   2.0000     -11.229628      -305.5737
   3   2.0000     -11.229628      -305.5737
   4   2.0000     -11.229151      -305.5607
   5   2.0000     -11.229151      -305.5607
   6   2.0000     -11.229151      -305.5607
   7   2.0000     -11.228655      -305.5472
   8   2.0000      -1.237548       -33.6754
   9   2.0000      -0.975370       -26.5412
  10   2.0000      -0.975370       -26.5412
  11   2.0000      -0.975370       -26.5412
  12   2.0000      -0.765886       -20.8408
  13   2.0000      -0.765886       -20.8408
  14   2.0000      -0.765886       -20.8408
  15   2.0000      -0.703990       -19.1565
  16   2.0000      -0.639492       -17.4014
  17   2.0000      -0.576447       -15.6859
  18   2.0000      -0.576447       -15.6859
  19   2.0000      -0.576447       -15.6859
  20   2.0000      -0.574368       -15.6294
  21   2.0000      -0.574368       -15.6294
  22   2.0000      -0.389116       -10.5884
  23   2.0000      -0.389116       -10.5884
  24   2.0000      -0.389116       -10.5884
  25   2.0000      -0.384130       -10.4527
  26   2.0000      -0.384130       -10.4527
  27   2.0000      -0.384130       -10.4527
  28   0.0000       0.181703         4.9444
  29   0.0000       0.202622         5.5136
  30   0.0000       0.202622         5.5136
  31   0.0000       0.202622         5.5136
  32   0.0000       0.253382         6.8949

E(0)                                       ...   -307.412380643
E(0)                                       ...   -307.412380643
E(CORR)(strong-pairs)                      ...     -1.128038268
E(CORR)(weak-pairs)                        ...     -0.001648539
E(CORR)(corrected)                         ...     -1.129686808
E(TOT)                                     ...   -308.542067451

MULLIKEN ATOMIC CHARGES
-----------------------
   0 H :   -0.005969
   1 H :   -0.005969
   2 H :   -0.005969
   3 H :   -0.005969
   4 H :   -0.005969
   5 H :   -0.005969
   6 H :   -0.005969
   7 H :   -0.005969
   8 C :    0.005969
   9 C :    0.005969
  10 C :    0.005969
  11 C :    0.005969
  12 C :    0.005969
  13 C :    0.005969
  14 C :    0.005969
  15 C :    0.005969
Sum of atomic charges:   -0.0000000

LOEWDIN ATOMIC CHARGES
----------------------
   0 H :    0.001319
   1 H :    0.001319
   2 H :    0.001319
   3 H :    0.001319
   4 H :    0.001319
   5 H :    0.001319
   6 H :    0.001319
   7 H :    0.001319
   8 C :   -0.001319
   9 C :   -0.001319
  10 C :   -0.001319
  11 C :   -0.001319
  12 C :   -0.001319
  13 C :   -0.001319
  14 C :   -0.001319
  15 C :   -0.001319

  Mayer bond orders larger than 0.1
B(  0-H ,  8-C ) :   0.9311 B(  1-H ,  9-C ) :   0.9311 B(  2-H , 10-C ) :   0.9311
B(  3-H , 11-C ) :   0.9311 B(  4-H , 12-C ) :   0.9311 B(  5-H , 13-C ) :   0.9311
B(  6-H , 14-C ) :   0.9311 B(  7-H , 15-C ) :   0.9311 B(  8-C , 13-C ) :   0.9031
B(  8-C , 14-C ) :   0.9031 B(  8-C , 15-C ) :   0.9031 B(  9-C , 12-C ) :   0.9031
B(  9-C , 14-C ) :   0.9031 B(  9-C , 15-C ) :   0.9031 B( 10-C , 12-C ) :   0.9031
B( 10-C , 13-C ) :   0.9031 B( 10-C , 15-C ) :   0.9031 B( 11-C , 12-C ) :   0.9031
B( 11-C , 13-C ) :   0.9031 B( 11-C , 14-C ) :   0.9031

FINAL SINGLE POINT ENERGY      -308.542067451281

DIPOLE MOMENT
-------------
                                X             Y             Z
Electronic contribution:      0.00000      -0.00000      -0.00000
Nuclear contribution   :      0.00000       0.00000       0.00000
                        -----------------------------------------
Total Dipole Moment    :      0.00000      -0.00000      -0.00000
                        -----------------------------------------
Magnitude (a.u.)       :      0.00000
Magnitude (Debye)      :      0.00000

                             ****ORCA TERMINATED NORMALLY****
TOTAL RUN TIME: 0 days 1 hours 12 minutes 3 seconds 323 msec
