                         Program Version 4.0.0 -  RELEASE  -
|  1> # ================================================================
|  2> # Orca input file for cubane B3LYP/def2-SVP geometry optimization
|  3> # ================================================================
|  4> ! RHF B3LYP def2-SVP TightSCF TightOPT UseSym
|  5> ! PAL4
|  6>
|  7> * xyz 0 1
|  8>   H      -1.423     -1.423     -1.423
|  9>   C      -0.788     -0.788     -0.788
| 10>   H      -1.423     -1.423      1.423
| 11>   C      -0.788     -0.788      0.788
| 12>   H      -1.423      1.423     -1.423
| 13>   C      -0.788      0.788     -0.788
| 14>   H       1.423     -1.423     -1.423
| 15>   C       0.788     -0.788     -0.788
| 16>   H      -1.423      1.423      1.423
| 17>   C      -0.788      0.788      0.788
| 18>   H       1.423     -1.423      1.423
| 19>   C       0.788     -0.788      0.788
| 20>   H       1.423      1.423     -1.423
| 21>   C       0.788      0.788     -0.788
| 22>   H       1.423      1.423      1.423
| 23>   C       0.788      0.788      0.788
| 24> *
| 25>
| 26>                          ****END OF INPUT****
 Total Charge           Charge          ....    0
 Multiplicity           Mult            ....    1
 Number of Electrons    NEL             ....   56
FINAL SINGLE POINT ENERGY      -309.034941334766
FINAL SINGLE POINT ENERGY      -309.035174122945
FINAL SINGLE POINT ENERGY      -309.035189053267
                    ***********************HURRAY********************

CARTESIAN COORDINATES (ANGSTROEM)
---------------------------------
  H     -1.419444    1.419444    1.419444
  C     -0.784957    0.784957    0.784957
  H     -1.419444   -1.419444    1.419444
  C     -0.784957   -0.784957    0.784957
  H      1.419444    1.419444    1.419444
  C      0.784957    0.784957    0.784957
  H     -1.419444    1.419444   -1.419444
  C     -0.784957    0.784957   -0.784957
  H      1.419444   -1.419444    1.419444
  C      0.784957   -0.784957    0.784957
  H     -1.419444   -1.419444   -1.419444
  C     -0.784957   -0.784957   -0.784957
  H      1.419444    1.419444   -1.419444
  C      0.784957    0.784957   -0.784957
  H      1.419444   -1.419444   -1.419444
  C      0.784957   -0.784957   -0.784957

 Multiplicity           Mult            ....    1
 Number of Electrons    NEL             ....   56
 Basis Dimension        Dim             ....  152

ORBITAL ENERGIES
----------------

  NO   OCC          E(Eh)            E(eV)    Irrep
   0   2.0000     -10.181931      -277.0644    1-Ag
   1   2.0000     -10.181864      -277.0626    1-B2u
   2   2.0000     -10.181864      -277.0626    1-B3u
   3   2.0000     -10.181864      -277.0626    1-B1u
   4   2.0000     -10.181861      -277.0625    1-B1g
   5   2.0000     -10.181861      -277.0625    1-B3g
   6   2.0000     -10.181861      -277.0625    1-B2g
   7   2.0000     -10.181824      -277.0615    1-Au
   8   2.0000      -0.938140       -25.5281    2-Ag
   9   2.0000      -0.715742       -19.4763    2-B2u
  10   2.0000      -0.715742       -19.4763    2-B3u
  11   2.0000      -0.715742       -19.4763    2-B1u
  12   2.0000      -0.547993       -14.9117    2-B1g
  13   2.0000      -0.547993       -14.9117    2-B2g
  14   2.0000      -0.547993       -14.9117    2-B3g
  15   2.0000      -0.525852       -14.3092    3-Ag
  16   2.0000      -0.454316       -12.3626    2-Au
  17   2.0000      -0.432332       -11.7643    4-Ag
  18   2.0000      -0.432332       -11.7643    5-Ag
  19   2.0000      -0.421299       -11.4641    3-B2u
  20   2.0000      -0.421299       -11.4641    3-B3u
  21   2.0000      -0.421299       -11.4641    3-B1u
  22   2.0000      -0.274173        -7.4606    4-B2u
  23   2.0000      -0.274173        -7.4606    4-B3u
  24   2.0000      -0.274173        -7.4606    4-B1u
  25   2.0000      -0.261195        -7.1075    3-B3g
  26   2.0000      -0.261195        -7.1075    3-B1g
  27   2.0000      -0.261195        -7.1075    3-B2g
  28   0.0000       0.059788         1.6269    6-Ag
  29   0.0000       0.067284         1.8309    5-B2u
  30   0.0000       0.067284         1.8309    5-B3u
  31   0.0000       0.067284         1.8309    5-B1u
  32   0.0000       0.122624         3.3368    6-B3u

MULLIKEN ATOMIC CHARGES
-----------------------
   0 H :   -0.025007
   1 C :    0.025008
   2 H :   -0.025007
   3 C :    0.025007
   4 H :   -0.025007
   5 C :    0.025007
   6 H :   -0.025007
   7 C :    0.025007
   8 H :   -0.025007
   9 C :    0.025008
  10 H :   -0.025007
  11 C :    0.025008
  12 H :   -0.025007
  13 C :    0.025008
  14 H :   -0.025007
  15 C :    0.025007
Sum of atomic charges:    0.0000000

LOEWDIN ATOMIC CHARGES
----------------------
   0 H :    0.003606
   1 C :   -0.003606
   2 H :    0.003606
   3 C :   -0.003606
   4 H :    0.003606
   5 C :   -0.003606
   6 H :    0.003606
   7 C :   -0.003606
   8 H :    0.003606
   9 C :   -0.003606
  10 H :    0.003606
  11 C :   -0.003606
  12 H :    0.003606
  13 C :   -0.003606
  14 H :    0.003606
  15 C :   -0.003606

  Mayer bond orders larger than 0.1
B(  0-H ,  1-C ) :   1.0701 B(  1-C ,  3-C ) :   0.8839 B(  1-C ,  5-C ) :   0.8839
B(  1-C ,  7-C ) :   0.8839 B(  2-H ,  3-C ) :   1.0701 B(  3-C ,  9-C ) :   0.8839
B(  3-C , 11-C ) :   0.8839 B(  4-H ,  5-C ) :   1.0701 B(  5-C ,  9-C ) :   0.8839
B(  5-C , 13-C ) :   0.8839 B(  6-H ,  7-C ) :   1.0701 B(  7-C , 11-C ) :   0.8839
B(  7-C , 13-C ) :   0.8839 B(  8-H ,  9-C ) :   1.0701 B(  9-C , 15-C ) :   0.8839
B( 10-H , 11-C ) :   1.0701 B( 11-C , 15-C ) :   0.8839 B( 12-H , 13-C ) :   1.0701
B( 13-C , 15-C ) :   0.8839 B( 14-H , 15-C ) :   1.0701

FINAL SINGLE POINT ENERGY      -309.035188913229

DIPOLE MOMENT
-------------
                                X             Y             Z
Electronic contribution:     -0.00000       0.00000      -0.00000
Nuclear contribution   :      0.00000      -0.00000      -0.00000
                        -----------------------------------------
Total Dipole Moment    :      0.00000      -0.00000      -0.00000
                        -----------------------------------------
Magnitude (a.u.)       :      0.00000
Magnitude (Debye)      :      0.00000

                             ****ORCA TERMINATED NORMALLY****
TOTAL RUN TIME: 0 days 0 hours 0 minutes 43 seconds 677 msec
