         Total SCF energy =   -307.484908052360
          Total MP2 energy          -308.778210475620
@ Step       Energy      Delta E   Gmax     Grms     Xrms     Xmax   Walltime
@ ---- ---------------- -------- -------- -------- -------- -------- --------
@    0    -308.77821048  0.0D+00  0.00061  0.00016  0.00000  0.00000   5369.6
         Total SCF energy =   -307.485019436384

 Vector   27  Occ=2.000000D+00  E=-3.831320D-01  Symmetry=t2g

 Vector   28  Occ=2.000000D+00  E=-3.831320D-01  Symmetry=t2g

 Vector   29  Occ=0.000000D+00  E= 1.453097D-01  Symmetry=a1g

 Vector   30  Occ=0.000000D+00  E= 1.628161D-01  Symmetry=t1u

 Vector   31  Occ=0.000000D+00  E= 1.628161D-01  Symmetry=t1u

 Vector   32  Occ=0.000000D+00  E= 1.628161D-01  Symmetry=t1u

 Vector   33  Occ=0.000000D+00  E= 1.997477D-01  Symmetry=t2g

 Vector   34  Occ=0.000000D+00  E= 1.997477D-01  Symmetry=t2g

 Vector   35  Occ=0.000000D+00  E= 1.997477D-01  Symmetry=t2g

 Vector   36  Occ=0.000000D+00  E= 2.244923D-01  Symmetry=t1u

 Vector   37  Occ=0.000000D+00  E= 2.244923D-01  Symmetry=t1u

 Vector   38  Occ=0.000000D+00  E= 2.244923D-01  Symmetry=t1u

 Vector   39  Occ=0.000000D+00  E= 2.301674D-01  Symmetry=a2u

 Vector   40  Occ=0.000000D+00  E= 3.492113D-01  Symmetry=t1g

 Vector   41  Occ=0.000000D+00  E= 3.492113D-01  Symmetry=t1g

 Vector   42  Occ=0.000000D+00  E= 3.492113D-01  Symmetry=t1g

 Vector   43  Occ=0.000000D+00  E= 3.680582D-01  Symmetry=t2g

 Vector   44  Occ=0.000000D+00  E= 3.680582D-01  Symmetry=t2g

 Vector   45  Occ=0.000000D+00  E= 3.680582D-01  Symmetry=t2g

 Vector   46  Occ=0.000000D+00  E= 3.749780D-01  Symmetry=eg

 Vector   47  Occ=0.000000D+00  E= 3.749780D-01  Symmetry=eg

 Vector   48  Occ=0.000000D+00  E= 3.800102D-01  Symmetry=a1g

 Vector   49  Occ=0.000000D+00  E= 4.338433D-01  Symmetry=t2u

 Vector   50  Occ=0.000000D+00  E= 4.338433D-01  Symmetry=t2u

 Vector   51  Occ=0.000000D+00  E= 4.338433D-01  Symmetry=t2u

 Vector   52  Occ=0.000000D+00  E= 4.841944D-01  Symmetry=eu

 Vector   53  Occ=0.000000D+00  E= 4.841944D-01  Symmetry=eu

 Vector   54  Occ=0.000000D+00  E= 4.976876D-01  Symmetry=t1u

 Vector   55  Occ=0.000000D+00  E= 4.976876D-01  Symmetry=t1u

 Vector   56  Occ=0.000000D+00  E= 4.976876D-01  Symmetry=t1u

 Vector   57  Occ=0.000000D+00  E= 5.693785D-01  Symmetry=a1g

          Total MP2 energy          -308.778218312121
         Total SCF energy =   -307.485048323385

 Vector    9  Occ=2.000000D+00  E=-1.244337D+00  Symmetry=a1g

 Vector   10  Occ=2.000000D+00  E=-9.784749D-01  Symmetry=t1u

 Vector   11  Occ=2.000000D+00  E=-9.784749D-01  Symmetry=t1u

 Vector   12  Occ=2.000000D+00  E=-9.784749D-01  Symmetry=t1u

 Vector   13  Occ=2.000000D+00  E=-7.676469D-01  Symmetry=t2g

 Vector   14  Occ=2.000000D+00  E=-7.676469D-01  Symmetry=t2g

 Vector   15  Occ=2.000000D+00  E=-7.676469D-01  Symmetry=t2g

 Vector   16  Occ=2.000000D+00  E=-7.104327D-01  Symmetry=a1g

 Vector   17  Occ=2.000000D+00  E=-6.412716D-01  Symmetry=a2u

 Vector   18  Occ=2.000000D+00  E=-5.800888D-01  Symmetry=t1u

 Vector   19  Occ=2.000000D+00  E=-5.800888D-01  Symmetry=t1u

 Vector   20  Occ=2.000000D+00  E=-5.800888D-01  Symmetry=t1u

 Vector   21  Occ=2.000000D+00  E=-5.794429D-01  Symmetry=eg

 Vector   22  Occ=2.000000D+00  E=-5.794429D-01  Symmetry=eg

 Vector   23  Occ=2.000000D+00  E=-3.902893D-01  Symmetry=t2u

 Vector   24  Occ=2.000000D+00  E=-3.902893D-01  Symmetry=t2u

 Vector   25  Occ=2.000000D+00  E=-3.902893D-01  Symmetry=t2u

 Vector   26  Occ=2.000000D+00  E=-3.831254D-01  Symmetry=t2g

 Vector   27  Occ=2.000000D+00  E=-3.831254D-01  Symmetry=t2g

 Vector   28  Occ=2.000000D+00  E=-3.831254D-01  Symmetry=t2g

 Vector   29  Occ=0.000000D+00  E= 1.452927D-01  Symmetry=a1g

 Vector   30  Occ=0.000000D+00  E= 1.628348D-01  Symmetry=t1u

 Vector   31  Occ=0.000000D+00  E= 1.628348D-01  Symmetry=t1u

 Vector   32  Occ=0.000000D+00  E= 1.628348D-01  Symmetry=t1u

 Vector   33  Occ=0.000000D+00  E= 1.997593D-01  Symmetry=t2g

 Vector   34  Occ=0.000000D+00  E= 1.997593D-01  Symmetry=t2g

 Vector   35  Occ=0.000000D+00  E= 1.997593D-01  Symmetry=t2g

 Vector   36  Occ=0.000000D+00  E= 2.245105D-01  Symmetry=t1u

 Vector   37  Occ=0.000000D+00  E= 2.245105D-01  Symmetry=t1u

 Vector   38  Occ=0.000000D+00  E= 2.245105D-01  Symmetry=t1u

 Vector   39  Occ=0.000000D+00  E= 2.301875D-01  Symmetry=a2u

 Vector   40  Occ=0.000000D+00  E= 3.492962D-01  Symmetry=t1g

 Vector   41  Occ=0.000000D+00  E= 3.492962D-01  Symmetry=t1g

 Vector   42  Occ=0.000000D+00  E= 3.492962D-01  Symmetry=t1g

 Vector   43  Occ=0.000000D+00  E= 3.680891D-01  Symmetry=t2g

 Vector   44  Occ=0.000000D+00  E= 3.680891D-01  Symmetry=t2g

 Vector   45  Occ=0.000000D+00  E= 3.680891D-01  Symmetry=t2g

 Vector   46  Occ=0.000000D+00  E= 3.749219D-01  Symmetry=eg

 Vector   47  Occ=0.000000D+00  E= 3.749219D-01  Symmetry=eg

 Vector   48  Occ=0.000000D+00  E= 3.800316D-01  Symmetry=a1g

 Vector   49  Occ=0.000000D+00  E= 4.338124D-01  Symmetry=t2u

 Vector   50  Occ=0.000000D+00  E= 4.338124D-01  Symmetry=t2u

 Vector   51  Occ=0.000000D+00  E= 4.338124D-01  Symmetry=t2u

 Vector   52  Occ=0.000000D+00  E= 4.842997D-01  Symmetry=eu

 Vector   53  Occ=0.000000D+00  E= 4.842997D-01  Symmetry=eu

 Vector   54  Occ=0.000000D+00  E= 4.977447D-01  Symmetry=t1u

 Vector   55  Occ=0.000000D+00  E= 4.977447D-01  Symmetry=t1u

 Vector   56  Occ=0.000000D+00  E= 4.977447D-01  Symmetry=t1u

 Vector   57  Occ=0.000000D+00  E= 5.693655D-01  Symmetry=a1g

       Multipole analysis of the density wrt the origin
       ------------------------------------------------

     L   x y z        total         open         nuclear
     -   - - -        -----         ----         -------
     0   0 0 0      0.000000      0.000000     56.000000

     1   1 0 0     -0.000000      0.000000      0.000000
     1   0 1 0     -0.000000      0.000000      0.000000
     1   0 0 1     -0.000000      0.000000      0.000000

     2   2 0 0    -34.957337      0.000000    161.921390
     2   1 1 0     -0.000000      0.000000      0.000000
     2   1 0 1      0.000000      0.000000      0.000000
     2   0 2 0    -34.957337      0.000000    161.921390
     2   0 1 1     -0.000000      0.000000      0.000000

          Total MP2 energy          -308.778218727722
@    1    -308.77821873 -8.3D-06  0.00001  0.00000  0.00114  0.00116  13588.3
@    1    -308.77821873 -8.3D-06  0.00001  0.00000  0.00114  0.00116  13588.3

 Output coordinates in angstroms (scale by  1.889725989 to convert to a.u.)

  No.       Tag          Charge          X              Y              Z
 ---- ---------------- ---------- -------------- -------------- --------------
    1 H                    1.0000     1.41001962     1.41001962     1.41001962
    2 H                    1.0000    -1.41001962    -1.41001962     1.41001962
    3 H                    1.0000    -1.41001962     1.41001962    -1.41001962
    4 H                    1.0000     1.41001962    -1.41001962    -1.41001962
    5 H                    1.0000     1.41001962     1.41001962    -1.41001962
    6 H                    1.0000    -1.41001962    -1.41001962    -1.41001962
    7 H                    1.0000     1.41001962    -1.41001962     1.41001962
    8 H                    1.0000    -1.41001962     1.41001962     1.41001962
    9 C                    6.0000     0.78312104     0.78312104     0.78312104
   10 C                    6.0000    -0.78312104    -0.78312104     0.78312104
   11 C                    6.0000    -0.78312104     0.78312104    -0.78312104
   12 C                    6.0000     0.78312104    -0.78312104    -0.78312104
   13 C                    6.0000     0.78312104     0.78312104    -0.78312104
   14 C                    6.0000    -0.78312104    -0.78312104    -0.78312104
   15 C                    6.0000     0.78312104    -0.78312104     0.78312104
   16 C                    6.0000    -0.78312104     0.78312104     0.78312104

 Total times  cpu:    12895.2s     wall:    13588.4s
