         Total SCF energy =   -307.294851866245
          Total MP2 energy          -308.363493345873
@ Step       Energy      Delta E   Gmax     Grms     Xrms     Xmax   Walltime
@ ---- ---------------- -------- -------- -------- -------- -------- --------
@    0    -308.36349335  0.0D+00  0.00482  0.00105  0.00000  0.00000     39.3
         Total SCF energy =   -307.294492519364

 Vector   43  Occ=0.000000D+00  E= 4.197813D-01  Symmetry=t2g

 Vector   44  Occ=0.000000D+00  E= 4.197813D-01  Symmetry=t2g

 Vector   45  Occ=0.000000D+00  E= 4.197813D-01  Symmetry=t2g

 Vector   46  Occ=0.000000D+00  E= 5.054118D-01  Symmetry=eu

          Total MP2 energy          -308.363760471789
         Total SCF energy =   -307.294492519364
          Total MP2 energy          -308.363760471789
@    1    -308.36376047 -2.7D-04  0.00022  0.00007  0.00488  0.00680     90.4
         Total SCF energy =   -307.294559210829

 Vector    9  Occ=2.000000D+00  E=-1.258763D+00  Symmetry=a1g

 Vector   10  Occ=2.000000D+00  E=-9.880389D-01  Symmetry=t1u

 Vector   11  Occ=2.000000D+00  E=-9.880389D-01  Symmetry=t1u

 Vector   12  Occ=2.000000D+00  E=-9.880389D-01  Symmetry=t1u

 Vector   13  Occ=2.000000D+00  E=-7.721317D-01  Symmetry=t2g

 Vector   14  Occ=2.000000D+00  E=-7.721317D-01  Symmetry=t2g

 Vector   15  Occ=2.000000D+00  E=-7.721317D-01  Symmetry=t2g

 Vector   16  Occ=2.000000D+00  E=-7.146984D-01  Symmetry=a1g

 Vector   17  Occ=2.000000D+00  E=-6.432245D-01  Symmetry=a2u

 Vector   18  Occ=2.000000D+00  E=-5.858091D-01  Symmetry=t1u

 Vector   19  Occ=2.000000D+00  E=-5.858091D-01  Symmetry=t1u

 Vector   20  Occ=2.000000D+00  E=-5.858091D-01  Symmetry=t1u

 Vector   21  Occ=2.000000D+00  E=-5.853342D-01  Symmetry=eg

 Vector   22  Occ=2.000000D+00  E=-5.853342D-01  Symmetry=eg

 Vector   23  Occ=2.000000D+00  E=-3.963574D-01  Symmetry=t2u

 Vector   24  Occ=2.000000D+00  E=-3.963574D-01  Symmetry=t2u

 Vector   25  Occ=2.000000D+00  E=-3.963574D-01  Symmetry=t2u

 Vector   26  Occ=2.000000D+00  E=-3.908152D-01  Symmetry=t2g

 Vector   27  Occ=2.000000D+00  E=-3.908152D-01  Symmetry=t2g

 Vector   28  Occ=2.000000D+00  E=-3.908152D-01  Symmetry=t2g

 Vector   29  Occ=0.000000D+00  E= 1.594364D-01  Symmetry=a1g

 Vector   30  Occ=0.000000D+00  E= 1.796259D-01  Symmetry=t1u

 Vector   31  Occ=0.000000D+00  E= 1.796259D-01  Symmetry=t1u

 Vector   32  Occ=0.000000D+00  E= 1.796259D-01  Symmetry=t1u

 Vector   33  Occ=0.000000D+00  E= 2.211445D-01  Symmetry=t2g

 Vector   34  Occ=0.000000D+00  E= 2.211445D-01  Symmetry=t2g

 Vector   35  Occ=0.000000D+00  E= 2.211445D-01  Symmetry=t2g

 Vector   36  Occ=0.000000D+00  E= 2.336370D-01  Symmetry=t1u

 Vector   37  Occ=0.000000D+00  E= 2.336370D-01  Symmetry=t1u

 Vector   38  Occ=0.000000D+00  E= 2.336370D-01  Symmetry=t1u

 Vector   39  Occ=0.000000D+00  E= 2.389380D-01  Symmetry=a2u

 Vector   40  Occ=0.000000D+00  E= 3.560241D-01  Symmetry=t1g

 Vector   41  Occ=0.000000D+00  E= 3.560241D-01  Symmetry=t1g

 Vector   42  Occ=0.000000D+00  E= 3.560241D-01  Symmetry=t1g

 Vector   43  Occ=0.000000D+00  E= 4.199008D-01  Symmetry=t2g

 Vector   44  Occ=0.000000D+00  E= 4.199008D-01  Symmetry=t2g

 Vector   45  Occ=0.000000D+00  E= 4.199008D-01  Symmetry=t2g

 Vector   46  Occ=0.000000D+00  E= 5.056014D-01  Symmetry=eu

          Total MP2 energy          -308.363761995861
         Total SCF energy =   -307.294573617982

 Vector    9  Occ=2.000000D+00  E=-1.258827D+00  Symmetry=a1g

 Vector   10  Occ=2.000000D+00  E=-9.880722D-01  Symmetry=t1u

 Vector   11  Occ=2.000000D+00  E=-9.880722D-01  Symmetry=t1u

 Vector   12  Occ=2.000000D+00  E=-9.880722D-01  Symmetry=t1u

 Vector   13  Occ=2.000000D+00  E=-7.721454D-01  Symmetry=t2g

 Vector   14  Occ=2.000000D+00  E=-7.721454D-01  Symmetry=t2g

 Vector   15  Occ=2.000000D+00  E=-7.721454D-01  Symmetry=t2g

 Vector   16  Occ=2.000000D+00  E=-7.147336D-01  Symmetry=a1g

 Vector   17  Occ=2.000000D+00  E=-6.432309D-01  Symmetry=a2u

 Vector   18  Occ=2.000000D+00  E=-5.858310D-01  Symmetry=t1u

 Vector   19  Occ=2.000000D+00  E=-5.858310D-01  Symmetry=t1u

 Vector   20  Occ=2.000000D+00  E=-5.858310D-01  Symmetry=t1u

 Vector   21  Occ=2.000000D+00  E=-5.853689D-01  Symmetry=eg

 Vector   22  Occ=2.000000D+00  E=-5.853689D-01  Symmetry=eg

 Vector   23  Occ=2.000000D+00  E=-3.963681D-01  Symmetry=t2u

 Vector   24  Occ=2.000000D+00  E=-3.963681D-01  Symmetry=t2u

 Vector   25  Occ=2.000000D+00  E=-3.963681D-01  Symmetry=t2u

 Vector   26  Occ=2.000000D+00  E=-3.908135D-01  Symmetry=t2g

 Vector   27  Occ=2.000000D+00  E=-3.908135D-01  Symmetry=t2g

 Vector   28  Occ=2.000000D+00  E=-3.908135D-01  Symmetry=t2g

 Vector   29  Occ=0.000000D+00  E= 1.594403D-01  Symmetry=a1g

 Vector   30  Occ=0.000000D+00  E= 1.796354D-01  Symmetry=t1u

 Vector   31  Occ=0.000000D+00  E= 1.796354D-01  Symmetry=t1u

 Vector   32  Occ=0.000000D+00  E= 1.796354D-01  Symmetry=t1u

 Vector   33  Occ=0.000000D+00  E= 2.211503D-01  Symmetry=t2g

 Vector   34  Occ=0.000000D+00  E= 2.211503D-01  Symmetry=t2g

 Vector   35  Occ=0.000000D+00  E= 2.211503D-01  Symmetry=t2g

 Vector   36  Occ=0.000000D+00  E= 2.336488D-01  Symmetry=t1u

 Vector   37  Occ=0.000000D+00  E= 2.336488D-01  Symmetry=t1u

 Vector   38  Occ=0.000000D+00  E= 2.336488D-01  Symmetry=t1u

 Vector   39  Occ=0.000000D+00  E= 2.389503D-01  Symmetry=a2u

 Vector   40  Occ=0.000000D+00  E= 3.560542D-01  Symmetry=t1g

 Vector   41  Occ=0.000000D+00  E= 3.560542D-01  Symmetry=t1g

 Vector   42  Occ=0.000000D+00  E= 3.560542D-01  Symmetry=t1g

 Vector   43  Occ=0.000000D+00  E= 4.199272D-01  Symmetry=t2g

 Vector   44  Occ=0.000000D+00  E= 4.199272D-01  Symmetry=t2g

 Vector   45  Occ=0.000000D+00  E= 4.199272D-01  Symmetry=t2g

 Vector   46  Occ=0.000000D+00  E= 5.056432D-01  Symmetry=eu

       Multipole analysis of the density wrt the origin
       ------------------------------------------------

     L   x y z        total         open         nuclear
     -   - - -        -----         ----         -------
     0   0 0 0     -0.000000      0.000000     56.000000

     1   1 0 0     -0.000000      0.000000      0.000000
     1   0 1 0     -0.000000      0.000000      0.000000
     1   0 0 1      0.000000      0.000000      0.000000

     2   2 0 0    -35.679759      0.000000    162.159537
     2   1 1 0      0.000000      0.000000      0.000000
     2   1 0 1      0.000000      0.000000      0.000000
     2   0 2 0    -35.679759      0.000000    162.159537
     2   0 1 1     -0.000000      0.000000      0.000000

          Total MP2 energy          -308.363762043631
@    2    -308.36376204 -1.6D-06  0.00003  0.00001  0.00061  0.00076    143.6
@    2    -308.36376204 -1.6D-06  0.00003  0.00001  0.00061  0.00076    143.6

 Output coordinates in angstroms (scale by  1.889725989 to convert to a.u.)

  No.       Tag          Charge          X              Y              Z
 ---- ---------------- ---------- -------------- -------------- --------------
    1 H                    1.0000     1.41379370     1.41379370     1.41379370
    2 H                    1.0000    -1.41379370    -1.41379370     1.41379370
    3 H                    1.0000    -1.41379370     1.41379370    -1.41379370
    4 H                    1.0000     1.41379370    -1.41379370    -1.41379370
    5 H                    1.0000     1.41379370     1.41379370    -1.41379370
    6 H                    1.0000    -1.41379370    -1.41379370    -1.41379370
    7 H                    1.0000     1.41379370    -1.41379370     1.41379370
    8 H                    1.0000    -1.41379370     1.41379370     1.41379370
    9 C                    6.0000     0.78287399     0.78287399     0.78287399
   10 C                    6.0000    -0.78287399    -0.78287399     0.78287399
   11 C                    6.0000    -0.78287399     0.78287399    -0.78287399
   12 C                    6.0000     0.78287399    -0.78287399    -0.78287399
   13 C                    6.0000     0.78287399     0.78287399    -0.78287399
   14 C                    6.0000    -0.78287399    -0.78287399    -0.78287399
   15 C                    6.0000     0.78287399    -0.78287399     0.78287399
   16 C                    6.0000    -0.78287399     0.78287399     0.78287399

 Total times  cpu:      167.7s     wall:      143.6s
