         Total DFT energy =     -309.567965974635

 Vector   66  Occ=0.000000D+00  E= 4.060293D-01  Symmetry=t2g

 Vector   67  Occ=0.000000D+00  E= 4.124537D-01  Symmetry=a2u

 Vector   68  Occ=0.000000D+00  E= 4.142018D-01  Symmetry=t1u

 Vector   69  Occ=0.000000D+00  E= 4.142018D-01  Symmetry=t1u

 Vector   70  Occ=0.000000D+00  E= 4.142018D-01  Symmetry=t1u

 Vector   71  Occ=0.000000D+00  E= 4.387187D-01  Symmetry=t2g

 Vector   72  Occ=0.000000D+00  E= 4.387187D-01  Symmetry=t2g

 Vector   73  Occ=0.000000D+00  E= 4.387187D-01  Symmetry=t2g

 Vector   74  Occ=0.000000D+00  E= 4.804410D-01  Symmetry=eu

 Vector   75  Occ=0.000000D+00  E= 4.804410D-01  Symmetry=eu

 Vector   76  Occ=0.000000D+00  E= 5.480804D-01  Symmetry=eg

@ Step       Energy      Delta E   Gmax     Grms     Xrms     Xmax   Walltime
@ ---- ---------------- -------- -------- -------- -------- -------- --------
@    0    -309.56796597  0.0D+00  0.00001  0.00000  0.00000  0.00000    160.0
         Total DFT energy =     -309.567965979362

                       DFT Final Molecular Orbital Analysis
                       ------------------------------------

 Vector    8  Occ=2.000000D+00  E=-1.017344D+01  Symmetry=a2u

 Vector    9  Occ=2.000000D+00  E=-9.440214D-01  Symmetry=a1g

 Vector   10  Occ=2.000000D+00  E=-7.252938D-01  Symmetry=t1u

 Vector   11  Occ=2.000000D+00  E=-7.252938D-01  Symmetry=t1u

 Vector   12  Occ=2.000000D+00  E=-7.252938D-01  Symmetry=t1u

 Vector   13  Occ=2.000000D+00  E=-5.597088D-01  Symmetry=t2g

 Vector   14  Occ=2.000000D+00  E=-5.597088D-01  Symmetry=t2g

 Vector   15  Occ=2.000000D+00  E=-5.597088D-01  Symmetry=t2g

 Vector   16  Occ=2.000000D+00  E=-5.337702D-01  Symmetry=a1g

 Vector   17  Occ=2.000000D+00  E=-4.652313D-01  Symmetry=a2u

 Vector   18  Occ=2.000000D+00  E=-4.342881D-01  Symmetry=eg

 Vector   19  Occ=2.000000D+00  E=-4.342881D-01  Symmetry=eg

 Vector   20  Occ=2.000000D+00  E=-4.262162D-01  Symmetry=t1u

 Vector   21  Occ=2.000000D+00  E=-4.262162D-01  Symmetry=t1u

 Vector   22  Occ=2.000000D+00  E=-4.262162D-01  Symmetry=t1u

 Vector   23  Occ=2.000000D+00  E=-2.758479D-01  Symmetry=t2u

 Vector   24  Occ=2.000000D+00  E=-2.758479D-01  Symmetry=t2u

 Vector   25  Occ=2.000000D+00  E=-2.758479D-01  Symmetry=t2u

 Vector   26  Occ=2.000000D+00  E=-2.635734D-01  Symmetry=t2g

 Vector   27  Occ=2.000000D+00  E=-2.635734D-01  Symmetry=t2g

 Vector   28  Occ=2.000000D+00  E=-2.635734D-01  Symmetry=t2g

 Vector   29  Occ=0.000000D+00  E= 3.866594D-02  Symmetry=t1u

 Vector   30  Occ=0.000000D+00  E= 3.866594D-02  Symmetry=t1u

 Vector   31  Occ=0.000000D+00  E= 3.866594D-02  Symmetry=t1u

 Vector   32  Occ=0.000000D+00  E= 4.504796D-02  Symmetry=a1g

 Vector   33  Occ=0.000000D+00  E= 9.874396D-02  Symmetry=t2g

 Vector   34  Occ=0.000000D+00  E= 9.874396D-02  Symmetry=t2g

 Vector   35  Occ=0.000000D+00  E= 9.874396D-02  Symmetry=t2g

 Vector   36  Occ=0.000000D+00  E= 1.022301D-01  Symmetry=t1u

 Vector   37  Occ=0.000000D+00  E= 1.022301D-01  Symmetry=t1u

 Vector   38  Occ=0.000000D+00  E= 1.022301D-01  Symmetry=t1u

 Vector   39  Occ=0.000000D+00  E= 1.250029D-01  Symmetry=a2u

 Vector   40  Occ=0.000000D+00  E= 1.712720D-01  Symmetry=eg

 Vector   41  Occ=0.000000D+00  E= 1.712720D-01  Symmetry=eg

 Vector   42  Occ=0.000000D+00  E= 1.728927D-01  Symmetry=t1g

 Vector   43  Occ=0.000000D+00  E= 1.728927D-01  Symmetry=t1g

 Vector   44  Occ=0.000000D+00  E= 1.728927D-01  Symmetry=t1g

 Vector   45  Occ=0.000000D+00  E= 2.080619D-01  Symmetry=a1g

 Vector   46  Occ=0.000000D+00  E= 2.115352D-01  Symmetry=t2g

 Vector   47  Occ=0.000000D+00  E= 2.115352D-01  Symmetry=t2g

 Vector   48  Occ=0.000000D+00  E= 2.115352D-01  Symmetry=t2g

 Vector   49  Occ=0.000000D+00  E= 2.392970D-01  Symmetry=t2u

 Vector   50  Occ=0.000000D+00  E= 2.392970D-01  Symmetry=t2u

 Vector   51  Occ=0.000000D+00  E= 2.392970D-01  Symmetry=t2u

 Vector   52  Occ=0.000000D+00  E= 2.731611D-01  Symmetry=t1u

 Vector   53  Occ=0.000000D+00  E= 2.731611D-01  Symmetry=t1u

 Vector   54  Occ=0.000000D+00  E= 2.731611D-01  Symmetry=t1u

 Vector   55  Occ=0.000000D+00  E= 2.955052D-01  Symmetry=eu

 Vector   56  Occ=0.000000D+00  E= 2.955052D-01  Symmetry=eu

 Vector   57  Occ=0.000000D+00  E= 3.424371D-01  Symmetry=a1g

 Vector   58  Occ=0.000000D+00  E= 4.004240D-01  Symmetry=t1u

 Vector   59  Occ=0.000000D+00  E= 4.004240D-01  Symmetry=t1u

 Vector   60  Occ=0.000000D+00  E= 4.004240D-01  Symmetry=t1u

 Vector   61  Occ=0.000000D+00  E= 4.005382D-01  Symmetry=t1g

 Vector   62  Occ=0.000000D+00  E= 4.005382D-01  Symmetry=t1g

 Vector   63  Occ=0.000000D+00  E= 4.005382D-01  Symmetry=t1g

 Vector   64  Occ=0.000000D+00  E= 4.060382D-01  Symmetry=t2g

 Vector   65  Occ=0.000000D+00  E= 4.060382D-01  Symmetry=t2g

 Vector   66  Occ=0.000000D+00  E= 4.060382D-01  Symmetry=t2g

 Vector   67  Occ=0.000000D+00  E= 4.124542D-01  Symmetry=a2u

 Vector   68  Occ=0.000000D+00  E= 4.142003D-01  Symmetry=t1u

 Vector   69  Occ=0.000000D+00  E= 4.142003D-01  Symmetry=t1u

 Vector   70  Occ=0.000000D+00  E= 4.142003D-01  Symmetry=t1u

 Vector   71  Occ=0.000000D+00  E= 4.387190D-01  Symmetry=t2g

 Vector   72  Occ=0.000000D+00  E= 4.387190D-01  Symmetry=t2g

 Vector   73  Occ=0.000000D+00  E= 4.387190D-01  Symmetry=t2g

 Vector   74  Occ=0.000000D+00  E= 4.804470D-01  Symmetry=eu

 Vector   75  Occ=0.000000D+00  E= 4.804470D-01  Symmetry=eu

 Vector   76  Occ=0.000000D+00  E= 5.480850D-01  Symmetry=eg

     Multipole analysis of the density
     ---------------------------------

     L   x y z        total         alpha         beta         nuclear
     -   - - -        -----         -----         ----         -------
     0   0 0 0     -0.000000    -28.000000    -28.000000     56.000000

     1   1 0 0     -0.000000     -0.000000     -0.000000      0.000000
     1   0 1 0     -0.000000     -0.000000     -0.000000      0.000000
     1   0 0 1      0.000000      0.000000      0.000000      0.000000

     2   2 0 0    -35.002774    -98.594899    -98.594899    162.187024
     2   1 1 0     -0.000000     -0.000000     -0.000000      0.000000
     2   1 0 1     -0.000000     -0.000000     -0.000000      0.000000
     2   0 2 0    -35.002774    -98.594899    -98.594899    162.187024
     2   0 1 1     -0.000000     -0.000000     -0.000000      0.000000

         Total DFT energy =   -309.567965979362
@    1    -309.56796598 -4.7D-09  0.00000  0.00000  0.00001  0.00001    243.5
@    1    -309.56796598 -4.7D-09  0.00000  0.00000  0.00001  0.00001    243.5

 Output coordinates in angstroms (scale by  1.889725989 to convert to a.u.)

  No.       Tag          Charge          X              Y              Z
 ---- ---------------- ---------- -------------- -------------- --------------
    1 H                    1.0000     1.41150271     1.41150271     1.41150271
    2 H                    1.0000    -1.41150271    -1.41150271     1.41150271
    3 H                    1.0000    -1.41150271     1.41150271    -1.41150271
    4 H                    1.0000     1.41150271    -1.41150271    -1.41150271
    5 H                    1.0000     1.41150271     1.41150271    -1.41150271
    6 H                    1.0000    -1.41150271    -1.41150271    -1.41150271
    7 H                    1.0000     1.41150271    -1.41150271     1.41150271
    8 H                    1.0000    -1.41150271     1.41150271     1.41150271
    9 C                    6.0000     0.78366499     0.78366499     0.78366499
   10 C                    6.0000    -0.78366499    -0.78366499     0.78366499
   11 C                    6.0000    -0.78366499     0.78366499    -0.78366499
   12 C                    6.0000     0.78366499    -0.78366499    -0.78366499
   13 C                    6.0000     0.78366499     0.78366499    -0.78366499
   14 C                    6.0000    -0.78366499    -0.78366499    -0.78366499
   15 C                    6.0000     0.78366499    -0.78366499     0.78366499
   16 C                    6.0000    -0.78366499     0.78366499     0.78366499

 Total times  cpu:      139.4s     wall:      243.6s
