         Total DFT energy =     -309.256717886337

 Vector   28  Occ=2.000000D+00  E=-2.644398D-01  Symmetry=t2g

 Vector   29  Occ=0.000000D+00  E= 5.694398D-02  Symmetry=a1g

 Vector   30  Occ=0.000000D+00  E= 6.543863D-02  Symmetry=t1u

 Vector   31  Occ=0.000000D+00  E= 6.543863D-02  Symmetry=t1u

 Vector   32  Occ=0.000000D+00  E= 6.543863D-02  Symmetry=t1u

 Vector   33  Occ=0.000000D+00  E= 1.193355D-01  Symmetry=t1u

 Vector   34  Occ=0.000000D+00  E= 1.193355D-01  Symmetry=t1u

 Vector   35  Occ=0.000000D+00  E= 1.193355D-01  Symmetry=t1u

 Vector   36  Occ=0.000000D+00  E= 1.335963D-01  Symmetry=t2g

 Vector   37  Occ=0.000000D+00  E= 1.335963D-01  Symmetry=t2g

 Vector   38  Occ=0.000000D+00  E= 1.335963D-01  Symmetry=t2g

 Vector   39  Occ=0.000000D+00  E= 1.495005D-01  Symmetry=a2u

 Vector   40  Occ=0.000000D+00  E= 1.849436D-01  Symmetry=t1g

 Vector   41  Occ=0.000000D+00  E= 1.849436D-01  Symmetry=t1g

 Vector   42  Occ=0.000000D+00  E= 1.849436D-01  Symmetry=t1g

 Vector   43  Occ=0.000000D+00  E= 2.974405D-01  Symmetry=t2g

 Vector   44  Occ=0.000000D+00  E= 2.974405D-01  Symmetry=t2g

 Vector   45  Occ=0.000000D+00  E= 2.974405D-01  Symmetry=t2g

 Vector   46  Occ=0.000000D+00  E= 3.174516D-01  Symmetry=eu

 Vector   47  Occ=0.000000D+00  E= 3.174516D-01  Symmetry=eu

 Vector   48  Occ=0.000000D+00  E= 3.287552D-01  Symmetry=a1g

 Vector   49  Occ=0.000000D+00  E= 4.452967D-01  Symmetry=eg

 Vector   50  Occ=0.000000D+00  E= 4.452967D-01  Symmetry=eg

 Vector   51  Occ=0.000000D+00  E= 4.775657D-01  Symmetry=t1u

 Vector   52  Occ=0.000000D+00  E= 4.775657D-01  Symmetry=t1u

 Vector   53  Occ=0.000000D+00  E= 4.775657D-01  Symmetry=t1u

 Vector   54  Occ=0.000000D+00  E= 4.910166D-01  Symmetry=t2u

 Vector   55  Occ=0.000000D+00  E= 4.910166D-01  Symmetry=t2u

 Vector   56  Occ=0.000000D+00  E= 4.910166D-01  Symmetry=t2u

 Vector   57  Occ=0.000000D+00  E= 5.032429D-01  Symmetry=a2u

@ Step       Energy      Delta E   Gmax     Grms     Xrms     Xmax   Walltime
@ ---- ---------------- -------- -------- -------- -------- -------- --------
@    0    -309.25671789  0.0D+00  0.00021  0.00005  0.00000  0.00000     10.5
         Total DFT energy =     -309.256718432173

                       DFT Final Molecular Orbital Analysis
                       ------------------------------------

 Vector    8  Occ=2.000000D+00  E=-1.019272D+01  Symmetry=a2u

 Vector    9  Occ=2.000000D+00  E=-9.412528D-01  Symmetry=a1g

 Vector   10  Occ=2.000000D+00  E=-7.197020D-01  Symmetry=t1u

 Vector   11  Occ=2.000000D+00  E=-7.197020D-01  Symmetry=t1u

 Vector   12  Occ=2.000000D+00  E=-7.197020D-01  Symmetry=t1u

 Vector   13  Occ=2.000000D+00  E=-5.517888D-01  Symmetry=t2g

 Vector   14  Occ=2.000000D+00  E=-5.517888D-01  Symmetry=t2g

 Vector   15  Occ=2.000000D+00  E=-5.517888D-01  Symmetry=t2g

 Vector   16  Occ=2.000000D+00  E=-5.285518D-01  Symmetry=a1g

 Vector   17  Occ=2.000000D+00  E=-4.577672D-01  Symmetry=a2u

 Vector   18  Occ=2.000000D+00  E=-4.350813D-01  Symmetry=eg

 Vector   19  Occ=2.000000D+00  E=-4.350813D-01  Symmetry=eg

 Vector   20  Occ=2.000000D+00  E=-4.241471D-01  Symmetry=t1u

 Vector   21  Occ=2.000000D+00  E=-4.241471D-01  Symmetry=t1u

 Vector   22  Occ=2.000000D+00  E=-4.241471D-01  Symmetry=t1u

 Vector   23  Occ=2.000000D+00  E=-2.770729D-01  Symmetry=t2u

 Vector   24  Occ=2.000000D+00  E=-2.770729D-01  Symmetry=t2u

 Vector   25  Occ=2.000000D+00  E=-2.770729D-01  Symmetry=t2u

 Vector   26  Occ=2.000000D+00  E=-2.644276D-01  Symmetry=t2g

 Vector   27  Occ=2.000000D+00  E=-2.644276D-01  Symmetry=t2g

 Vector   28  Occ=2.000000D+00  E=-2.644276D-01  Symmetry=t2g

 Vector   29  Occ=0.000000D+00  E= 5.702747D-02  Symmetry=a1g

 Vector   30  Occ=0.000000D+00  E= 6.546307D-02  Symmetry=t1u

 Vector   31  Occ=0.000000D+00  E= 6.546307D-02  Symmetry=t1u

 Vector   32  Occ=0.000000D+00  E= 6.546307D-02  Symmetry=t1u

 Vector   33  Occ=0.000000D+00  E= 1.193991D-01  Symmetry=t1u

 Vector   34  Occ=0.000000D+00  E= 1.193991D-01  Symmetry=t1u

 Vector   35  Occ=0.000000D+00  E= 1.193991D-01  Symmetry=t1u

 Vector   36  Occ=0.000000D+00  E= 1.336423D-01  Symmetry=t2g

 Vector   37  Occ=0.000000D+00  E= 1.336423D-01  Symmetry=t2g

 Vector   38  Occ=0.000000D+00  E= 1.336423D-01  Symmetry=t2g

 Vector   39  Occ=0.000000D+00  E= 1.495805D-01  Symmetry=a2u

 Vector   40  Occ=0.000000D+00  E= 1.849784D-01  Symmetry=t1g

 Vector   41  Occ=0.000000D+00  E= 1.849784D-01  Symmetry=t1g

 Vector   42  Occ=0.000000D+00  E= 1.849784D-01  Symmetry=t1g

 Vector   43  Occ=0.000000D+00  E= 2.974918D-01  Symmetry=t2g

 Vector   44  Occ=0.000000D+00  E= 2.974918D-01  Symmetry=t2g

 Vector   45  Occ=0.000000D+00  E= 2.974918D-01  Symmetry=t2g

 Vector   46  Occ=0.000000D+00  E= 3.174977D-01  Symmetry=eu

 Vector   47  Occ=0.000000D+00  E= 3.174977D-01  Symmetry=eu

 Vector   48  Occ=0.000000D+00  E= 3.287619D-01  Symmetry=a1g

 Vector   49  Occ=0.000000D+00  E= 4.452974D-01  Symmetry=eg

 Vector   50  Occ=0.000000D+00  E= 4.452974D-01  Symmetry=eg

 Vector   51  Occ=0.000000D+00  E= 4.776636D-01  Symmetry=t1u

 Vector   52  Occ=0.000000D+00  E= 4.776636D-01  Symmetry=t1u

 Vector   53  Occ=0.000000D+00  E= 4.776636D-01  Symmetry=t1u

 Vector   54  Occ=0.000000D+00  E= 4.910299D-01  Symmetry=t2u

 Vector   55  Occ=0.000000D+00  E= 4.910299D-01  Symmetry=t2u

 Vector   56  Occ=0.000000D+00  E= 4.910299D-01  Symmetry=t2u

 Vector   57  Occ=0.000000D+00  E= 5.034156D-01  Symmetry=a2u

     Multipole analysis of the density
     ---------------------------------

     L   x y z        total         alpha         beta         nuclear
     -   - - -        -----         -----         ----         -------
     0   0 0 0     -0.000000    -28.000000    -28.000000     56.000000

     1   1 0 0      0.000000      0.000000      0.000000      0.000000
     1   0 1 0      0.000000      0.000000      0.000000      0.000000
     1   0 0 1     -0.000000     -0.000000     -0.000000      0.000000

     2   2 0 0    -34.989194    -98.970922    -98.970922    162.952649
     2   1 1 0      0.000000      0.000000      0.000000      0.000000
     2   1 0 1     -0.000000     -0.000000     -0.000000      0.000000
     2   0 2 0    -34.989194    -98.970922    -98.970922    162.952649
     2   0 1 1      0.000000      0.000000      0.000000      0.000000

         Total DFT energy =   -309.256718432173
@    1    -309.25671843 -5.5D-07  0.00000  0.00000  0.00029  0.00041     16.5
@    1    -309.25671843 -5.5D-07  0.00000  0.00000  0.00029  0.00041     16.5

 Output coordinates in angstroms (scale by  1.889725989 to convert to a.u.)

  No.       Tag          Charge          X              Y              Z
 ---- ---------------- ---------- -------------- -------------- --------------
    1 H                    1.0000     1.41878273     1.41878273     1.41878273
    2 H                    1.0000    -1.41878273    -1.41878273     1.41878273
    3 H                    1.0000    -1.41878273     1.41878273    -1.41878273
    4 H                    1.0000     1.41878273    -1.41878273    -1.41878273
    5 H                    1.0000     1.41878273     1.41878273    -1.41878273
    6 H                    1.0000    -1.41878273    -1.41878273    -1.41878273
    7 H                    1.0000     1.41878273    -1.41878273     1.41878273
    8 H                    1.0000    -1.41878273     1.41878273     1.41878273
    9 C                    6.0000     0.78432349     0.78432349     0.78432349
   10 C                    6.0000    -0.78432349    -0.78432349     0.78432349
   11 C                    6.0000    -0.78432349     0.78432349    -0.78432349
   12 C                    6.0000     0.78432349    -0.78432349    -0.78432349
   13 C                    6.0000     0.78432349     0.78432349    -0.78432349
   14 C                    6.0000    -0.78432349    -0.78432349    -0.78432349
   15 C                    6.0000     0.78432349    -0.78432349     0.78432349
   16 C                    6.0000    -0.78432349     0.78432349     0.78432349

 Total times  cpu:       10.9s     wall:       16.5s
