 Output coordinates in angstroms (scale by  1.889725989 to convert to a.u.)

  No.       Tag          Charge          X              Y              Z
 ---- ---------------- ---------- -------------- -------------- --------------
    1 H                    1.0000     2.05734129    -1.32981120     0.02496975
    2 C                    6.0000     1.09520984    -0.79607173    -0.03872781
    3 H                    1.0000     2.05734129     1.32981120     0.02496975
    4 C                    6.0000     1.09520984     0.79607173    -0.03872781
    5 H                    1.0000     0.00000000    -1.59258557    -2.05035613
    6 C                    6.0000     0.00000000    -1.20794408    -1.02589690
    7 H                    1.0000     0.00000000     1.59258557    -2.05035613
    8 C                    6.0000     0.00000000     1.20794408    -1.02589690
    9 H                    1.0000     0.00000000    -1.45028854     1.97989593
   10 C                    6.0000     0.00000000    -0.78106969     1.10677262
   11 H                    1.0000     0.00000000     1.45028854     1.97989593
   12 C                    6.0000     0.00000000     0.78106969     1.10677262
   13 H                    1.0000    -2.05734129    -1.32981120     0.02496975
   14 C                    6.0000    -1.09520984    -0.79607173    -0.03872781
   15 H                    1.0000    -2.05734129     1.32981120     0.02496975
   16 C                    6.0000    -1.09520984     0.79607173    -0.03872781

         Total SCF energy =   -307.342926287136

 Vector    9  Occ=2.000000D+00  E=-1.218864D+00  Symmetry=a1

 Vector   10  Occ=2.000000D+00  E=-1.023029D+00  Symmetry=b2

 Vector   11  Occ=2.000000D+00  E=-9.673759D-01  Symmetry=b1

 Vector   12  Occ=2.000000D+00  E=-9.340745D-01  Symmetry=a1

 Vector   13  Occ=2.000000D+00  E=-7.870861D-01  Symmetry=b2

 Vector   14  Occ=2.000000D+00  E=-7.844562D-01  Symmetry=a2

 Vector   15  Occ=2.000000D+00  E=-7.568673D-01  Symmetry=a1

 Vector   16  Occ=2.000000D+00  E=-7.009714D-01  Symmetry=a1

 Vector   17  Occ=2.000000D+00  E=-6.520998D-01  Symmetry=b2

 Vector   18  Occ=2.000000D+00  E=-6.087718D-01  Symmetry=a1

 Vector   19  Occ=2.000000D+00  E=-6.066323D-01  Symmetry=b2

 Vector   20  Occ=2.000000D+00  E=-5.757121D-01  Symmetry=b1

 Vector   21  Occ=2.000000D+00  E=-5.387044D-01  Symmetry=b1

 Vector   22  Occ=2.000000D+00  E=-5.300677D-01  Symmetry=a1

 Vector   23  Occ=2.000000D+00  E=-4.448700D-01  Symmetry=a2

 Vector   24  Occ=2.000000D+00  E=-4.324106D-01  Symmetry=b1

 Vector   25  Occ=2.000000D+00  E=-4.129715D-01  Symmetry=b2

 Vector   26  Occ=2.000000D+00  E=-4.054742D-01  Symmetry=a1

 Vector   27  Occ=2.000000D+00  E=-3.822742D-01  Symmetry=a2

 Vector   28  Occ=2.000000D+00  E=-2.089947D-01  Symmetry=a1

 Vector   29  Occ=0.000000D+00  E= 4.465764D-02  Symmetry=b2

 Vector   30  Occ=0.000000D+00  E= 1.461475D-01  Symmetry=a1

 Vector   31  Occ=0.000000D+00  E= 1.618533D-01  Symmetry=a1

 Vector   32  Occ=0.000000D+00  E= 1.636586D-01  Symmetry=b1

 Vector   33  Occ=0.000000D+00  E= 1.820904D-01  Symmetry=b2

 Vector   34  Occ=0.000000D+00  E= 1.936941D-01  Symmetry=a1

 Vector   35  Occ=0.000000D+00  E= 1.984935D-01  Symmetry=a2

 Vector   36  Occ=0.000000D+00  E= 2.009766D-01  Symmetry=b2

 Vector   37  Occ=0.000000D+00  E= 2.212200D-01  Symmetry=b2

 Vector   38  Occ=0.000000D+00  E= 2.301163D-01  Symmetry=a1

 Vector   39  Occ=0.000000D+00  E= 2.354021D-01  Symmetry=b1

 Vector   40  Occ=0.000000D+00  E= 3.000478D-01  Symmetry=b2

 Vector   41  Occ=0.000000D+00  E= 3.439195D-01  Symmetry=a1

 Vector   42  Occ=0.000000D+00  E= 3.462194D-01  Symmetry=b1

 Vector   43  Occ=0.000000D+00  E= 3.462384D-01  Symmetry=a2

 Vector   44  Occ=0.000000D+00  E= 3.515485D-01  Symmetry=a2

 Vector   45  Occ=0.000000D+00  E= 3.533515D-01  Symmetry=b2

 Vector   46  Occ=0.000000D+00  E= 3.735488D-01  Symmetry=a1

 Vector   47  Occ=0.000000D+00  E= 3.820253D-01  Symmetry=b1

 Vector   48  Occ=0.000000D+00  E= 4.063705D-01  Symmetry=a1

 Vector   49  Occ=0.000000D+00  E= 4.242273D-01  Symmetry=b1

 Vector   50  Occ=0.000000D+00  E= 4.253650D-01  Symmetry=a2

 Vector   51  Occ=0.000000D+00  E= 4.394421D-01  Symmetry=b2

 Vector   52  Occ=0.000000D+00  E= 4.705166D-01  Symmetry=b2

 Vector   53  Occ=0.000000D+00  E= 4.798791D-01  Symmetry=a1

 Vector   54  Occ=0.000000D+00  E= 4.835786D-01  Symmetry=a2

 Vector   55  Occ=0.000000D+00  E= 4.946456D-01  Symmetry=a1

 Vector   56  Occ=0.000000D+00  E= 5.243320D-01  Symmetry=b1

       Multipole analysis of the density wrt the origin
       ------------------------------------------------

     L   x y z        total         open         nuclear
     -   - - -        -----         ----         -------
     0   0 0 0      0.000000      0.000000     56.000000

     1   1 0 0      0.000000      0.000000      0.000000
     1   0 1 0     -0.000000      0.000000     -0.000000
     1   0 0 1      0.152196      0.000000     -0.000000

     2   2 0 0    -35.145248      0.000000    163.262786
     2   1 1 0      0.000000      0.000000      0.000000
     2   1 0 1     -0.000000      0.000000      0.000000
     2   0 2 0    -35.572608      0.000000    201.382432
     2   0 1 1      0.000000      0.000000      0.000000

 Total times  cpu:    94586.0s     wall:   228948.0s
