         Total SCF energy =   -307.384300468407

 Vector   43  Occ=0.000000D+00  E= 4.117949D-01  Symmetry=b2

 Vector   44  Occ=0.000000D+00  E= 4.205661D-01  Symmetry=a2

 Vector   45  Occ=0.000000D+00  E= 4.363892D-01  Symmetry=a1

 Vector   46  Occ=0.000000D+00  E= 5.186602D-01  Symmetry=a2

          Total MP2 energy          -308.412028342494
@ Step       Energy      Delta E   Gmax     Grms     Xrms     Xmax   Walltime
@ ---- ---------------- -------- -------- -------- -------- -------- --------
@    0    -308.41202834  0.0D+00  0.00001  0.00000  0.00000  0.00000    191.7
         Total SCF energy =   -307.384298663045

 Vector    9  Occ=1.000000D+00  E=-1.230293D+00  Symmetry=a1

 Vector   10  Occ=1.000000D+00  E=-1.060100D+00  Symmetry=b2

 Vector   11  Occ=1.000000D+00  E=-9.656320D-01  Symmetry=b1

 Vector   12  Occ=1.000000D+00  E=-9.521202D-01  Symmetry=a1

 Vector   13  Occ=1.000000D+00  E=-8.083230D-01  Symmetry=b2

 Vector   14  Occ=1.000000D+00  E=-7.877883D-01  Symmetry=a2

 Vector   15  Occ=1.000000D+00  E=-7.707618D-01  Symmetry=a1

 Vector   16  Occ=1.000000D+00  E=-7.039477D-01  Symmetry=a1

 Vector   17  Occ=1.000000D+00  E=-6.543128D-01  Symmetry=b2

 Vector   18  Occ=1.000000D+00  E=-6.335024D-01  Symmetry=a1

 Vector   19  Occ=1.000000D+00  E=-6.119511D-01  Symmetry=b2

 Vector   20  Occ=1.000000D+00  E=-5.749136D-01  Symmetry=b1

 Vector   21  Occ=1.000000D+00  E=-5.487771D-01  Symmetry=a1

 Vector   22  Occ=1.000000D+00  E=-5.273783D-01  Symmetry=b1

 Vector   23  Occ=1.000000D+00  E=-4.512253D-01  Symmetry=a2

 Vector   24  Occ=1.000000D+00  E=-4.402370D-01  Symmetry=b1

 Vector   25  Occ=1.000000D+00  E=-4.141294D-01  Symmetry=b2

 Vector   26  Occ=1.000000D+00  E=-4.132942D-01  Symmetry=a1

 Vector   27  Occ=1.000000D+00  E=-3.816660D-01  Symmetry=a2

 Vector   28  Occ=1.000000D+00  E=-3.712752D-01  Symmetry=b2

 Vector   29  Occ=1.000000D+00  E=-3.042967D-01  Symmetry=a1

 Vector   30  Occ=0.000000D+00  E= 1.867604D-01  Symmetry=a1

 Vector   31  Occ=0.000000D+00  E= 2.000046D-01  Symmetry=a1

 Vector   32  Occ=0.000000D+00  E= 2.091604D-01  Symmetry=b1

 Vector   33  Occ=0.000000D+00  E= 2.293459D-01  Symmetry=b2

 Vector   34  Occ=0.000000D+00  E= 2.379022D-01  Symmetry=a1

 Vector   35  Occ=0.000000D+00  E= 2.545112D-01  Symmetry=a2

 Vector   36  Occ=0.000000D+00  E= 2.597570D-01  Symmetry=b2

 Vector   37  Occ=0.000000D+00  E= 2.687467D-01  Symmetry=a1

 Vector   38  Occ=0.000000D+00  E= 2.694787D-01  Symmetry=b2

 Vector   39  Occ=0.000000D+00  E= 2.750221D-01  Symmetry=b1

 Vector   40  Occ=0.000000D+00  E= 3.181350D-01  Symmetry=b2

 Vector   41  Occ=0.000000D+00  E= 3.666595D-01  Symmetry=a2

 Vector   42  Occ=0.000000D+00  E= 3.728240D-01  Symmetry=b1

 Vector   43  Occ=0.000000D+00  E= 4.000718D-01  Symmetry=b2

 Vector   44  Occ=0.000000D+00  E= 4.125307D-01  Symmetry=a2

 Vector   45  Occ=0.000000D+00  E= 4.139909D-01  Symmetry=a1

 Vector   46  Occ=0.000000D+00  E= 5.107074D-01  Symmetry=b2

 Vector    9  Occ=1.000000D+00  E=-1.212650D+00  Symmetry=a1

 Vector   10  Occ=1.000000D+00  E=-1.019419D+00  Symmetry=b2

 Vector   11  Occ=1.000000D+00  E=-9.586615D-01  Symmetry=b1

 Vector   12  Occ=1.000000D+00  E=-9.121762D-01  Symmetry=a1

 Vector   13  Occ=1.000000D+00  E=-7.849970D-01  Symmetry=a2

 Vector   14  Occ=1.000000D+00  E=-7.689189D-01  Symmetry=b2

 Vector   15  Occ=1.000000D+00  E=-7.350700D-01  Symmetry=a1

 Vector   16  Occ=1.000000D+00  E=-6.923096D-01  Symmetry=a1

 Vector   17  Occ=1.000000D+00  E=-6.401031D-01  Symmetry=b2

 Vector   18  Occ=1.000000D+00  E=-6.062399D-01  Symmetry=a1

 Vector   19  Occ=1.000000D+00  E=-6.031841D-01  Symmetry=b2

 Vector   20  Occ=1.000000D+00  E=-5.694453D-01  Symmetry=b1

 Vector   21  Occ=1.000000D+00  E=-5.181843D-01  Symmetry=b1

 Vector   22  Occ=1.000000D+00  E=-4.942698D-01  Symmetry=a1

 Vector   23  Occ=1.000000D+00  E=-4.355741D-01  Symmetry=a2

 Vector   24  Occ=1.000000D+00  E=-4.234868D-01  Symmetry=b1

 Vector   25  Occ=1.000000D+00  E=-4.052583D-01  Symmetry=b2

 Vector   26  Occ=1.000000D+00  E=-4.025403D-01  Symmetry=a1

 Vector   27  Occ=1.000000D+00  E=-3.803693D-01  Symmetry=a2

 Vector   28  Occ=0.000000D+00  E= 1.248584D-01  Symmetry=b2

 Vector   29  Occ=0.000000D+00  E= 1.427999D-01  Symmetry=a1

 Vector   30  Occ=0.000000D+00  E= 1.931083D-01  Symmetry=a1

 Vector   31  Occ=0.000000D+00  E= 2.106373D-01  Symmetry=b1

 Vector   32  Occ=0.000000D+00  E= 2.155375D-01  Symmetry=a1

 Vector   33  Occ=0.000000D+00  E= 2.364982D-01  Symmetry=b2

 Vector   34  Occ=0.000000D+00  E= 2.442626D-01  Symmetry=a1

 Vector   35  Occ=0.000000D+00  E= 2.577932D-01  Symmetry=a2

 Vector   36  Occ=0.000000D+00  E= 2.643328D-01  Symmetry=b2

 Vector   37  Occ=0.000000D+00  E= 2.761920D-01  Symmetry=b1

 Vector   38  Occ=0.000000D+00  E= 2.765000D-01  Symmetry=a1

 Vector   39  Occ=0.000000D+00  E= 2.773840D-01  Symmetry=b2

 Vector   40  Occ=0.000000D+00  E= 3.614203D-01  Symmetry=b2

 Vector   41  Occ=0.000000D+00  E= 3.764039D-01  Symmetry=a2

 Vector   42  Occ=0.000000D+00  E= 3.867246D-01  Symmetry=b1

 Vector   43  Occ=0.000000D+00  E= 4.117963D-01  Symmetry=b2

 Vector   44  Occ=0.000000D+00  E= 4.205701D-01  Symmetry=a2

 Vector   45  Occ=0.000000D+00  E= 4.363949D-01  Symmetry=a1

 Vector   46  Occ=0.000000D+00  E= 5.186623D-01  Symmetry=a2

       Multipole analysis of the density wrt the origin
       ------------------------------------------------

     L   x y z        total         alpha         beta         nuclear
     -   - - -        -----         -----         ----         -------
     0   0 0 0     -0.000000    -29.000000    -27.000000     56.000000

     1   1 0 0     -0.000000     -0.000000     -0.000000      0.000000
     1   0 1 0     -0.000000     -0.000000     -0.000000     -0.000000
     1   0 0 1      0.041066      1.654860     -1.615121      0.001327

     2   2 0 0    -34.546333    -98.324850    -96.147416    159.925933
     2   1 1 0     -0.000000     -0.000000      0.000000     -0.000000
     2   1 0 1      0.000000      0.000000      0.000000      0.000000
     2   0 2 0    -37.497742   -135.014897   -114.981290    212.498445
     2   0 1 1     -0.000000     -0.000000     -0.000000      0.000000

          Total MP2 energy          -308.412028353012
         Total SCF energy =   -307.384298663045
          Total MP2 energy          -308.412028353012
@    1    -308.41202835 -1.1D-08  0.00000  0.00000  0.00005  0.00018    396.8
@    1    -308.41202835 -1.1D-08  0.00000  0.00000  0.00005  0.00018    396.8

 Output coordinates in angstroms (scale by  1.889725989 to convert to a.u.)

  No.       Tag          Charge          X              Y              Z
 ---- ---------------- ---------- -------------- -------------- --------------
    1 H                    1.0000     2.06559938    -1.28285126     0.01746800
    2 C                    6.0000     1.07465160    -0.80756286    -0.05539200
    3 H                    1.0000     2.06559938     1.28285126     0.01746800
    4 C                    6.0000     1.07465160     0.80756286    -0.05539200
    5 H                    1.0000     0.00000000    -1.50297048    -2.06416507
    6 C                    6.0000     0.00000000    -1.33051792    -0.98023463
    7 H                    1.0000     0.00000000     1.50297048    -2.06416507
    8 C                    6.0000     0.00000000     1.33051792    -0.98023463
    9 H                    1.0000     0.00000000    -1.45943190     1.96438703
   10 C                    6.0000     0.00000000    -0.77727940     1.10188414
   11 H                    1.0000     0.00000000     1.45943190     1.96438703
   12 C                    6.0000     0.00000000     0.77727940     1.10188414
   13 H                    1.0000    -2.06559938    -1.28285126     0.01746800
   14 C                    6.0000    -1.07465160    -0.80756286    -0.05539200
   15 H                    1.0000    -2.06559938     1.28285126     0.01746800
   16 C                    6.0000    -1.07465160     0.80756286    -0.05539200

 Total times  cpu:      482.1s     wall:      396.8s
