         Total SCF energy =   -307.371229303118
          Total MP2 energy          -308.401157186224
@ Step       Energy      Delta E   Gmax     Grms     Xrms     Xmax   Walltime
@ ---- ---------------- -------- -------- -------- -------- -------- --------
@    0    -308.40115719  0.0D+00  0.01557  0.00318  0.00000  0.00000   1299.7
         Total SCF energy =   -307.379822300434
          Total MP2 energy          -308.408636917236
         Total SCF energy =   -307.380236149816
          Total MP2 energy          -308.408954078119
@    1    -308.40895408 -7.8D-03  0.00406  0.00076  0.07440  0.26736   3295.8
         Total SCF energy =   -307.381015744084
          Total MP2 energy          -308.409632794970
         Total SCF energy =   -307.381472975919
          Total MP2 energy          -308.410004973429
@    2    -308.41000497 -1.1D-03  0.00240  0.00060  0.02672  0.05545   5275.6
         Total SCF energy =   -307.381771288010
          Total MP2 energy          -308.410321587141
         Total SCF energy =   -307.381933173383
          Total MP2 energy          -308.410544768480
@    3    -308.41054477 -5.4D-04  0.00208  0.00053  0.01953  0.05403   7416.0
         Total SCF energy =   -307.382068987524
          Total MP2 energy          -308.410710328153
         Total SCF energy =   -307.382124931080
          Total MP2 energy          -308.410848660570
@    4    -308.41084866 -3.0D-04  0.00141  0.00031  0.01614  0.04271   9407.7
         Total SCF energy =   -307.382318770483
          Total MP2 energy          -308.410948392241
         Total SCF energy =   -307.382651109513
          Total MP2 energy          -308.411053654624
@    5    -308.41105365 -2.0D-04  0.00147  0.00035  0.01356  0.05327  10945.0
         Total SCF energy =   -307.382548851977
          Total MP2 energy          -308.411138980272
         Total SCF energy =   -307.382217667264
          Total MP2 energy          -308.411212379994
@    6    -308.41121238 -1.6D-04  0.00142  0.00036  0.01433  0.05468  12578.1
         Total SCF energy =   -307.382460063806
          Total MP2 energy          -308.411338231578
         Total SCF energy =   -307.383118782291
          Total MP2 energy          -308.411630160842
@    7    -308.41163016 -4.2D-04  0.00090  0.00028  0.02581  0.12058  14228.1
         Total SCF energy =   -307.383906666364
          Total MP2 energy          -308.411882174467
         Total SCF energy =   -307.384315274029
          Total MP2 energy          -308.411928751024
@    8    -308.41192875 -3.0D-04  0.00099  0.00023  0.02782  0.12720  15716.6
         Total SCF energy =   -307.384358224621
          Total MP2 energy          -308.411991643506
         Total SCF energy =   -307.384358224621
          Total MP2 energy          -308.411991643506
@    9    -308.41199164 -6.3D-05  0.00029  0.00008  0.01599  0.07322  17024.7
         Total SCF energy =   -307.384306744513
          Total MP2 energy          -308.412010762922
         Total SCF energy =   -307.384258189661
          Total MP2 energy          -308.412015315393
@   10    -308.41201532 -2.4D-05  0.00035  0.00008  0.00450  0.01716  18494.1
         Total SCF energy =   -307.384315252336
          Total MP2 energy          -308.412024360276
         Total SCF energy =   -307.384356884612
          Total MP2 energy          -308.412026714167
@   11    -308.41202671 -1.1D-05  0.00024  0.00004  0.00550  0.02300  19949.1
         Total SCF energy =   -307.384317761753
          Total MP2 energy          -308.412028189880
         Total SCF energy =   -307.384305178950

 Vector   43  Occ=0.000000D+00  E= 4.117972D-01  Symmetry=b2

 Vector   44  Occ=0.000000D+00  E= 4.205523D-01  Symmetry=a2

 Vector   45  Occ=0.000000D+00  E= 4.363789D-01  Symmetry=a1

 Vector   46  Occ=0.000000D+00  E= 5.186572D-01  Symmetry=a2

          Total MP2 energy          -308.412028277561
@   12    -308.41202828 -1.6D-06  0.00003  0.00001  0.00074  0.00265  21307.3
         Total SCF energy =   -307.384300468738

 Vector    9  Occ=1.000000D+00  E=-1.230292D+00  Symmetry=a1

 Vector   10  Occ=1.000000D+00  E=-1.060101D+00  Symmetry=b2

 Vector   11  Occ=1.000000D+00  E=-9.656263D-01  Symmetry=b1

 Vector   12  Occ=1.000000D+00  E=-9.521233D-01  Symmetry=a1

 Vector   13  Occ=1.000000D+00  E=-8.083273D-01  Symmetry=b2

 Vector   14  Occ=1.000000D+00  E=-7.877872D-01  Symmetry=a2

 Vector   15  Occ=1.000000D+00  E=-7.707619D-01  Symmetry=a1

 Vector   16  Occ=1.000000D+00  E=-7.039475D-01  Symmetry=a1

 Vector   17  Occ=1.000000D+00  E=-6.543145D-01  Symmetry=b2

 Vector   18  Occ=1.000000D+00  E=-6.335042D-01  Symmetry=a1

 Vector   19  Occ=1.000000D+00  E=-6.119514D-01  Symmetry=b2

 Vector   20  Occ=1.000000D+00  E=-5.749121D-01  Symmetry=b1

 Vector   21  Occ=1.000000D+00  E=-5.487770D-01  Symmetry=a1

 Vector   22  Occ=1.000000D+00  E=-5.273702D-01  Symmetry=b1

 Vector   23  Occ=1.000000D+00  E=-4.512225D-01  Symmetry=a2

 Vector   24  Occ=1.000000D+00  E=-4.402332D-01  Symmetry=b1

 Vector   25  Occ=1.000000D+00  E=-4.141366D-01  Symmetry=b2

 Vector   26  Occ=1.000000D+00  E=-4.133006D-01  Symmetry=a1

 Vector   27  Occ=1.000000D+00  E=-3.816613D-01  Symmetry=a2

 Vector   28  Occ=1.000000D+00  E=-3.712834D-01  Symmetry=b2

 Vector   29  Occ=1.000000D+00  E=-3.042962D-01  Symmetry=a1

 Vector   30  Occ=0.000000D+00  E= 1.867605D-01  Symmetry=a1

 Vector   31  Occ=0.000000D+00  E= 2.000069D-01  Symmetry=a1

 Vector   32  Occ=0.000000D+00  E= 2.091612D-01  Symmetry=b1

 Vector   33  Occ=0.000000D+00  E= 2.293471D-01  Symmetry=b2

 Vector   34  Occ=0.000000D+00  E= 2.379056D-01  Symmetry=a1

 Vector   35  Occ=0.000000D+00  E= 2.545095D-01  Symmetry=a2

 Vector   36  Occ=0.000000D+00  E= 2.597564D-01  Symmetry=b2

 Vector   37  Occ=0.000000D+00  E= 2.687494D-01  Symmetry=a1

 Vector   38  Occ=0.000000D+00  E= 2.694782D-01  Symmetry=b2

 Vector   39  Occ=0.000000D+00  E= 2.750253D-01  Symmetry=b1

 Vector   40  Occ=0.000000D+00  E= 3.181377D-01  Symmetry=b2

 Vector   41  Occ=0.000000D+00  E= 3.666573D-01  Symmetry=a2

 Vector   42  Occ=0.000000D+00  E= 3.728200D-01  Symmetry=b1

 Vector   43  Occ=0.000000D+00  E= 4.000711D-01  Symmetry=b2

 Vector   44  Occ=0.000000D+00  E= 4.125270D-01  Symmetry=a2

 Vector   45  Occ=0.000000D+00  E= 4.139845D-01  Symmetry=a1

 Vector   46  Occ=0.000000D+00  E= 5.107130D-01  Symmetry=b2

 Vector    9  Occ=1.000000D+00  E=-1.212652D+00  Symmetry=a1

 Vector   10  Occ=1.000000D+00  E=-1.019420D+00  Symmetry=b2

 Vector   11  Occ=1.000000D+00  E=-9.586565D-01  Symmetry=b1

 Vector   12  Occ=1.000000D+00  E=-9.121780D-01  Symmetry=a1

 Vector   13  Occ=1.000000D+00  E=-7.849962D-01  Symmetry=a2

 Vector   14  Occ=1.000000D+00  E=-7.689213D-01  Symmetry=b2

 Vector   15  Occ=1.000000D+00  E=-7.350686D-01  Symmetry=a1

 Vector   16  Occ=1.000000D+00  E=-6.923119D-01  Symmetry=a1

 Vector   17  Occ=1.000000D+00  E=-6.401065D-01  Symmetry=b2

 Vector   18  Occ=1.000000D+00  E=-6.062442D-01  Symmetry=a1

 Vector   19  Occ=1.000000D+00  E=-6.031851D-01  Symmetry=b2

 Vector   20  Occ=1.000000D+00  E=-5.694441D-01  Symmetry=b1

 Vector   21  Occ=1.000000D+00  E=-5.181764D-01  Symmetry=b1

 Vector   22  Occ=1.000000D+00  E=-4.942711D-01  Symmetry=a1

 Vector   23  Occ=1.000000D+00  E=-4.355714D-01  Symmetry=a2

 Vector   24  Occ=1.000000D+00  E=-4.234831D-01  Symmetry=b1

 Vector   25  Occ=1.000000D+00  E=-4.052656D-01  Symmetry=b2

 Vector   26  Occ=1.000000D+00  E=-4.025447D-01  Symmetry=a1

 Vector   27  Occ=1.000000D+00  E=-3.803647D-01  Symmetry=a2

 Vector   28  Occ=0.000000D+00  E= 1.248525D-01  Symmetry=b2

 Vector   29  Occ=0.000000D+00  E= 1.428021D-01  Symmetry=a1

 Vector   30  Occ=0.000000D+00  E= 1.931068D-01  Symmetry=a1

 Vector   31  Occ=0.000000D+00  E= 2.106382D-01  Symmetry=b1

 Vector   32  Occ=0.000000D+00  E= 2.155401D-01  Symmetry=a1

 Vector   33  Occ=0.000000D+00  E= 2.364989D-01  Symmetry=b2

 Vector   34  Occ=0.000000D+00  E= 2.442652D-01  Symmetry=a1

 Vector   35  Occ=0.000000D+00  E= 2.577918D-01  Symmetry=a2

 Vector   36  Occ=0.000000D+00  E= 2.643357D-01  Symmetry=b2

 Vector   37  Occ=0.000000D+00  E= 2.761952D-01  Symmetry=b1

 Vector   38  Occ=0.000000D+00  E= 2.765031D-01  Symmetry=a1

 Vector   39  Occ=0.000000D+00  E= 2.773795D-01  Symmetry=b2

 Vector   40  Occ=0.000000D+00  E= 3.614261D-01  Symmetry=b2

 Vector   41  Occ=0.000000D+00  E= 3.764022D-01  Symmetry=a2

 Vector   42  Occ=0.000000D+00  E= 3.867210D-01  Symmetry=b1

 Vector   43  Occ=0.000000D+00  E= 4.117949D-01  Symmetry=b2

 Vector   44  Occ=0.000000D+00  E= 4.205661D-01  Symmetry=a2

 Vector   45  Occ=0.000000D+00  E= 4.363892D-01  Symmetry=a1

 Vector   46  Occ=0.000000D+00  E= 5.186602D-01  Symmetry=a2

       Multipole analysis of the density wrt the origin
       ------------------------------------------------

     L   x y z        total         alpha         beta         nuclear
     -   - - -        -----         -----         ----         -------
     0   0 0 0     -0.000000    -29.000000    -27.000000     56.000000

     1   1 0 0     -0.000000     -0.000000     -0.000000      0.000000
     1   0 1 0      0.000000     -0.000000      0.000000     -0.000000
     1   0 0 1      0.041077      1.402965     -1.849686      0.487798

     2   2 0 0    -34.546607    -98.323403    -96.146085    159.922881
     2   1 1 0      0.000000      0.000000      0.000000      0.000000
     2   1 0 1      0.000000      0.000000      0.000000      0.000000
     2   0 2 0    -37.497590   -135.019146   -114.984561    212.506117
     2   0 1 1      0.000000      0.000000      0.000000      0.000000

          Total MP2 energy          -308.412028338404
         Total SCF energy =   -307.384300468738
          Total MP2 energy          -308.412028338404
@   13    -308.41202834 -6.1D-08  0.00001  0.00000  0.00021  0.00087  22520.7
@   13    -308.41202834 -6.1D-08  0.00001  0.00000  0.00021  0.00087  22520.7

 Output coordinates in angstroms (scale by  1.889725989 to convert to a.u.)

  No.       Tag          Charge          X              Y              Z
 ---- ---------------- ---------- -------------- -------------- --------------
    1 H                    1.0000     2.06558205    -1.28286326     0.02211469
    2 C                    6.0000     1.07464059    -0.80757103    -0.05079586
    3 H                    1.0000     2.06558205     1.28286326     0.02211469
    4 C                    6.0000     1.07464059     0.80757103    -0.05079586
    5 H                    1.0000     0.00000000    -1.50306671    -2.05955799
    6 C                    6.0000     0.00000000    -1.33057164    -0.97564719
    7 H                    1.0000     0.00000000     1.50306671    -2.05955799
    8 C                    6.0000     0.00000000     1.33057164    -0.97564719
    9 H                    1.0000     0.00000000    -1.45938535     1.96899476
   10 C                    6.0000     0.00000000    -0.77726259     1.10647220
   11 H                    1.0000     0.00000000     1.45938535     1.96899476
   12 C                    6.0000     0.00000000     0.77726259     1.10647220
   13 H                    1.0000    -2.06558205    -1.28286326     0.02211469
   14 C                    6.0000    -1.07464059    -0.80757103    -0.05079586
   15 H                    1.0000    -2.06558205     1.28286326     0.02211469
   16 C                    6.0000    -1.07464059     0.80757103    -0.05079586

 Total times  cpu:    18277.0s     wall:    22520.9s
