         Total SCF energy =   -307.503093878137
          Total MP2 energy          -308.875734852334
@ Step       Energy      Delta E   Gmax     Grms     Xrms     Xmax   Walltime
@ ---- ---------------- -------- -------- -------- -------- -------- --------
@    0    -308.87573485  0.0D+00  0.00224  0.00062  0.00000  0.00000  22824.9
         Total SCF energy =   -307.503347945002
          Total MP2 energy          -308.875826429072
         Total SCF energy =   -307.503347945002
          Total MP2 energy          -308.875826429072
@    1    -308.87582643 -9.2D-05  0.00024  0.00007  0.00263  0.00328  51425.0
         Total SCF energy =   -307.503360235694

 Vector   43  Occ=0.000000D+00  E= 3.003787D-01  Symmetry=t2g

 Vector   44  Occ=0.000000D+00  E= 3.003787D-01  Symmetry=t2g

 Vector   45  Occ=0.000000D+00  E= 3.221793D-01  Symmetry=t1g

 Vector   46  Occ=0.000000D+00  E= 3.221793D-01  Symmetry=t1g

 Vector   47  Occ=0.000000D+00  E= 3.221793D-01  Symmetry=t1g

 Vector   48  Occ=0.000000D+00  E= 3.233920D-01  Symmetry=t2u

 Vector   49  Occ=0.000000D+00  E= 3.233920D-01  Symmetry=t2u

 Vector   50  Occ=0.000000D+00  E= 3.233920D-01  Symmetry=t2u

 Vector   51  Occ=0.000000D+00  E= 3.349836D-01  Symmetry=a1g

 Vector   52  Occ=0.000000D+00  E= 3.955415D-01  Symmetry=t1u

 Vector   53  Occ=0.000000D+00  E= 3.955415D-01  Symmetry=t1u

 Vector   54  Occ=0.000000D+00  E= 3.955415D-01  Symmetry=t1u

 Vector   55  Occ=0.000000D+00  E= 4.192640D-01  Symmetry=a1g

 Vector   56  Occ=0.000000D+00  E= 4.327092D-01  Symmetry=eu

 Vector   57  Occ=0.000000D+00  E= 4.327092D-01  Symmetry=eu

 Vector   58  Occ=0.000000D+00  E= 4.646657D-01  Symmetry=t1u

 Vector   59  Occ=0.000000D+00  E= 4.646657D-01  Symmetry=t1u

 Vector   60  Occ=0.000000D+00  E= 4.646657D-01  Symmetry=t1u

 Vector   61  Occ=0.000000D+00  E= 4.865432D-01  Symmetry=t2g

 Vector   62  Occ=0.000000D+00  E= 4.865432D-01  Symmetry=t2g

 Vector   63  Occ=0.000000D+00  E= 4.865432D-01  Symmetry=t2g

 Vector   64  Occ=0.000000D+00  E= 4.905404D-01  Symmetry=a2u

 Vector   65  Occ=0.000000D+00  E= 5.095978D-01  Symmetry=t1g

          Total MP2 energy          -308.875826061650
         Total SCF energy =   -307.503353691287

 Vector    9  Occ=2.000000D+00  E=-1.246294D+00  Symmetry=a1g

 Vector   10  Occ=2.000000D+00  E=-9.792246D-01  Symmetry=t1u

 Vector   11  Occ=2.000000D+00  E=-9.792246D-01  Symmetry=t1u

 Vector   12  Occ=2.000000D+00  E=-9.792246D-01  Symmetry=t1u

 Vector   13  Occ=2.000000D+00  E=-7.673468D-01  Symmetry=t2g

 Vector   14  Occ=2.000000D+00  E=-7.673468D-01  Symmetry=t2g

 Vector   15  Occ=2.000000D+00  E=-7.673468D-01  Symmetry=t2g

 Vector   16  Occ=2.000000D+00  E=-7.109102D-01  Symmetry=a1g

 Vector   17  Occ=2.000000D+00  E=-6.404766D-01  Symmetry=a2u

 Vector   18  Occ=2.000000D+00  E=-5.809068D-01  Symmetry=eg

 Vector   19  Occ=2.000000D+00  E=-5.809068D-01  Symmetry=eg

 Vector   20  Occ=2.000000D+00  E=-5.803558D-01  Symmetry=t1u

 Vector   21  Occ=2.000000D+00  E=-5.803558D-01  Symmetry=t1u

 Vector   22  Occ=2.000000D+00  E=-5.803558D-01  Symmetry=t1u

 Vector   23  Occ=2.000000D+00  E=-3.909466D-01  Symmetry=t2u

 Vector   24  Occ=2.000000D+00  E=-3.909466D-01  Symmetry=t2u

 Vector   25  Occ=2.000000D+00  E=-3.909466D-01  Symmetry=t2u

 Vector   26  Occ=2.000000D+00  E=-3.831531D-01  Symmetry=t2g

 Vector   27  Occ=2.000000D+00  E=-3.831531D-01  Symmetry=t2g

 Vector   28  Occ=2.000000D+00  E=-3.831531D-01  Symmetry=t2g

 Vector   29  Occ=0.000000D+00  E= 1.162226D-01  Symmetry=a1g

 Vector   30  Occ=0.000000D+00  E= 1.313380D-01  Symmetry=t1u

 Vector   31  Occ=0.000000D+00  E= 1.313380D-01  Symmetry=t1u

 Vector   32  Occ=0.000000D+00  E= 1.313380D-01  Symmetry=t1u

 Vector   33  Occ=0.000000D+00  E= 1.610001D-01  Symmetry=t2g

 Vector   34  Occ=0.000000D+00  E= 1.610001D-01  Symmetry=t2g

 Vector   35  Occ=0.000000D+00  E= 1.610001D-01  Symmetry=t2g

 Vector   36  Occ=0.000000D+00  E= 1.943858D-01  Symmetry=a2u

 Vector   37  Occ=0.000000D+00  E= 1.974339D-01  Symmetry=t1u

 Vector   38  Occ=0.000000D+00  E= 1.974339D-01  Symmetry=t1u

 Vector   39  Occ=0.000000D+00  E= 1.974339D-01  Symmetry=t1u

 Vector   40  Occ=0.000000D+00  E= 2.731868D-01  Symmetry=eg

 Vector   41  Occ=0.000000D+00  E= 2.731868D-01  Symmetry=eg

 Vector   42  Occ=0.000000D+00  E= 3.003613D-01  Symmetry=t2g

 Vector   43  Occ=0.000000D+00  E= 3.003613D-01  Symmetry=t2g

 Vector   44  Occ=0.000000D+00  E= 3.003613D-01  Symmetry=t2g

 Vector   45  Occ=0.000000D+00  E= 3.221293D-01  Symmetry=t1g

 Vector   46  Occ=0.000000D+00  E= 3.221293D-01  Symmetry=t1g

 Vector   47  Occ=0.000000D+00  E= 3.221293D-01  Symmetry=t1g

 Vector   48  Occ=0.000000D+00  E= 3.234097D-01  Symmetry=t2u

 Vector   49  Occ=0.000000D+00  E= 3.234097D-01  Symmetry=t2u

 Vector   50  Occ=0.000000D+00  E= 3.234097D-01  Symmetry=t2u

 Vector   51  Occ=0.000000D+00  E= 3.350000D-01  Symmetry=a1g

 Vector   52  Occ=0.000000D+00  E= 3.955064D-01  Symmetry=t1u

 Vector   53  Occ=0.000000D+00  E= 3.955064D-01  Symmetry=t1u

 Vector   54  Occ=0.000000D+00  E= 3.955064D-01  Symmetry=t1u

 Vector   55  Occ=0.000000D+00  E= 4.193020D-01  Symmetry=a1g

 Vector   56  Occ=0.000000D+00  E= 4.326625D-01  Symmetry=eu

 Vector   57  Occ=0.000000D+00  E= 4.326625D-01  Symmetry=eu

 Vector   58  Occ=0.000000D+00  E= 4.647060D-01  Symmetry=t1u

 Vector   59  Occ=0.000000D+00  E= 4.647060D-01  Symmetry=t1u

 Vector   60  Occ=0.000000D+00  E= 4.647060D-01  Symmetry=t1u

 Vector   61  Occ=0.000000D+00  E= 4.865532D-01  Symmetry=t2g

 Vector   62  Occ=0.000000D+00  E= 4.865532D-01  Symmetry=t2g

 Vector   63  Occ=0.000000D+00  E= 4.865532D-01  Symmetry=t2g

 Vector   64  Occ=0.000000D+00  E= 4.905368D-01  Symmetry=a2u

 Vector   65  Occ=0.000000D+00  E= 5.095294D-01  Symmetry=t1g

       Multipole analysis of the density wrt the origin
       ------------------------------------------------

     L   x y z        total         open         nuclear
     -   - - -        -----         ----         -------
     0   0 0 0     -0.000000      0.000000     56.000000

     1   1 0 0      0.000000      0.000000      0.000000
     1   0 1 0      0.000000      0.000000      0.000000
     1   0 0 1     -0.000000      0.000000      0.000000

     2   2 0 0    -34.937587      0.000000    161.508299
     2   1 1 0      0.000000      0.000000      0.000000
     2   1 0 1     -0.000000      0.000000      0.000000
     2   0 2 0    -34.937587      0.000000    161.508299
     2   0 1 1      0.000000      0.000000      0.000000

          Total MP2 energy          -308.875826573199
@    2    -308.87582657 -1.4D-07  0.00022  0.00006  0.00013  0.00017  80195.4
@    2    -308.87582657 -1.4D-07  0.00022  0.00006  0.00013  0.00017  80195.4

 Output coordinates in angstroms (scale by  1.889725989 to convert to a.u.)

  No.       Tag          Charge          X              Y              Z
 ---- ---------------- ---------- -------------- -------------- --------------
    1 H                    1.0000     1.40904610     1.40904610     1.40904610
    2 H                    1.0000    -1.40904610    -1.40904610     1.40904610
    3 H                    1.0000    -1.40904610     1.40904610    -1.40904610
    4 H                    1.0000     1.40904610    -1.40904610    -1.40904610
    5 H                    1.0000     1.40904610     1.40904610    -1.40904610
    6 H                    1.0000    -1.40904610    -1.40904610    -1.40904610
    7 H                    1.0000     1.40904610    -1.40904610     1.40904610
    8 H                    1.0000    -1.40904610     1.40904610     1.40904610
    9 C                    6.0000     0.78187341     0.78187341     0.78187341
   10 C                    6.0000    -0.78187341    -0.78187341     0.78187341
   11 C                    6.0000    -0.78187341     0.78187341    -0.78187341
   12 C                    6.0000     0.78187341    -0.78187341    -0.78187341
   13 C                    6.0000     0.78187341     0.78187341    -0.78187341
   14 C                    6.0000    -0.78187341    -0.78187341    -0.78187341
   15 C                    6.0000     0.78187341    -0.78187341     0.78187341
   16 C                    6.0000    -0.78187341     0.78187341     0.78187341

 Total times  cpu:    79438.0s     wall:    80195.4s
