         Total SCF energy =   -307.481777309980
          Total MP2 energy          -308.759051570312
@ Step       Energy      Delta E   Gmax     Grms     Xrms     Xmax   Walltime
@ ---- ---------------- -------- -------- -------- -------- -------- --------
@    0    -308.75905157  0.0D+00  0.00260  0.00071  0.00000  0.00000    582.5
         Total SCF energy =   -307.482317218683
          Total MP2 energy          -308.759207839344
         Total SCF energy =   -307.482421543242

 Vector   43  Occ=0.000000D+00  E= 3.044991D-01  Symmetry=t2g

 Vector   44  Occ=0.000000D+00  E= 3.044991D-01  Symmetry=t2g

 Vector   45  Occ=0.000000D+00  E= 3.175495D-01  Symmetry=t1g

 Vector   46  Occ=0.000000D+00  E= 3.175495D-01  Symmetry=t1g

 Vector   47  Occ=0.000000D+00  E= 3.175495D-01  Symmetry=t1g

 Vector   48  Occ=0.000000D+00  E= 3.244471D-01  Symmetry=t2u

 Vector   49  Occ=0.000000D+00  E= 3.244471D-01  Symmetry=t2u

 Vector   50  Occ=0.000000D+00  E= 3.244471D-01  Symmetry=t2u

 Vector   51  Occ=0.000000D+00  E= 3.282090D-01  Symmetry=a1g

 Vector   52  Occ=0.000000D+00  E= 4.102326D-01  Symmetry=a2u

 Vector   53  Occ=0.000000D+00  E= 4.202652D-01  Symmetry=t1u

 Vector   54  Occ=0.000000D+00  E= 4.202652D-01  Symmetry=t1u

 Vector   55  Occ=0.000000D+00  E= 4.202652D-01  Symmetry=t1u

 Vector   56  Occ=0.000000D+00  E= 4.207835D-01  Symmetry=eu

 Vector   57  Occ=0.000000D+00  E= 4.207835D-01  Symmetry=eu

 Vector   58  Occ=0.000000D+00  E= 4.258318D-01  Symmetry=a1g

 Vector   59  Occ=0.000000D+00  E= 4.426485D-01  Symmetry=t2g

 Vector   60  Occ=0.000000D+00  E= 4.426485D-01  Symmetry=t2g

 Vector   61  Occ=0.000000D+00  E= 4.426485D-01  Symmetry=t2g

 Vector   62  Occ=0.000000D+00  E= 4.862872D-01  Symmetry=t1u

 Vector   63  Occ=0.000000D+00  E= 4.862872D-01  Symmetry=t1u

 Vector   64  Occ=0.000000D+00  E= 4.862872D-01  Symmetry=t1u

 Vector   65  Occ=0.000000D+00  E= 5.314161D-01  Symmetry=t1u

          Total MP2 energy          -308.759214624825
@    1    -308.75921462 -1.6D-04  0.00032  0.00007  0.00589  0.00681   1430.7
         Total SCF energy =   -307.482397998453

 Vector    9  Occ=2.000000D+00  E=-1.247912D+00  Symmetry=a1g

 Vector   10  Occ=2.000000D+00  E=-9.799832D-01  Symmetry=t1u

 Vector   11  Occ=2.000000D+00  E=-9.799832D-01  Symmetry=t1u

 Vector   12  Occ=2.000000D+00  E=-9.799832D-01  Symmetry=t1u

 Vector   13  Occ=2.000000D+00  E=-7.678302D-01  Symmetry=t2g

 Vector   14  Occ=2.000000D+00  E=-7.678302D-01  Symmetry=t2g

 Vector   15  Occ=2.000000D+00  E=-7.678302D-01  Symmetry=t2g

 Vector   16  Occ=2.000000D+00  E=-7.121898D-01  Symmetry=a1g

 Vector   17  Occ=2.000000D+00  E=-6.409525D-01  Symmetry=a2u

 Vector   18  Occ=2.000000D+00  E=-5.819666D-01  Symmetry=eg

 Vector   19  Occ=2.000000D+00  E=-5.819666D-01  Symmetry=eg

 Vector   20  Occ=2.000000D+00  E=-5.812807D-01  Symmetry=t1u

 Vector   21  Occ=2.000000D+00  E=-5.812807D-01  Symmetry=t1u

 Vector   22  Occ=2.000000D+00  E=-5.812807D-01  Symmetry=t1u

 Vector   23  Occ=2.000000D+00  E=-3.912189D-01  Symmetry=t2u

 Vector   24  Occ=2.000000D+00  E=-3.912189D-01  Symmetry=t2u

 Vector   25  Occ=2.000000D+00  E=-3.912189D-01  Symmetry=t2u

 Vector   26  Occ=2.000000D+00  E=-3.833730D-01  Symmetry=t2g

 Vector   27  Occ=2.000000D+00  E=-3.833730D-01  Symmetry=t2g

 Vector   28  Occ=2.000000D+00  E=-3.833730D-01  Symmetry=t2g

 Vector   29  Occ=0.000000D+00  E= 9.819955D-02  Symmetry=a1g

 Vector   30  Occ=0.000000D+00  E= 1.195088D-01  Symmetry=t1u

 Vector   31  Occ=0.000000D+00  E= 1.195088D-01  Symmetry=t1u

 Vector   32  Occ=0.000000D+00  E= 1.195088D-01  Symmetry=t1u

 Vector   33  Occ=0.000000D+00  E= 1.400217D-01  Symmetry=t2g

 Vector   34  Occ=0.000000D+00  E= 1.400217D-01  Symmetry=t2g

 Vector   35  Occ=0.000000D+00  E= 1.400217D-01  Symmetry=t2g

 Vector   36  Occ=0.000000D+00  E= 1.646171D-01  Symmetry=a2u

 Vector   37  Occ=0.000000D+00  E= 1.918705D-01  Symmetry=t1u

 Vector   38  Occ=0.000000D+00  E= 1.918705D-01  Symmetry=t1u

 Vector   39  Occ=0.000000D+00  E= 1.918705D-01  Symmetry=t1u

 Vector   40  Occ=0.000000D+00  E= 2.586422D-01  Symmetry=eg

 Vector   41  Occ=0.000000D+00  E= 2.586422D-01  Symmetry=eg

 Vector   42  Occ=0.000000D+00  E= 3.044900D-01  Symmetry=t2g

 Vector   43  Occ=0.000000D+00  E= 3.044900D-01  Symmetry=t2g

 Vector   44  Occ=0.000000D+00  E= 3.044900D-01  Symmetry=t2g

 Vector   45  Occ=0.000000D+00  E= 3.175672D-01  Symmetry=t1g

 Vector   46  Occ=0.000000D+00  E= 3.175672D-01  Symmetry=t1g

 Vector   47  Occ=0.000000D+00  E= 3.175672D-01  Symmetry=t1g

 Vector   48  Occ=0.000000D+00  E= 3.244276D-01  Symmetry=t2u

 Vector   49  Occ=0.000000D+00  E= 3.244276D-01  Symmetry=t2u

 Vector   50  Occ=0.000000D+00  E= 3.244276D-01  Symmetry=t2u

 Vector   51  Occ=0.000000D+00  E= 3.280547D-01  Symmetry=a1g

 Vector   52  Occ=0.000000D+00  E= 4.101775D-01  Symmetry=a2u

 Vector   53  Occ=0.000000D+00  E= 4.202456D-01  Symmetry=t1u

 Vector   54  Occ=0.000000D+00  E= 4.202456D-01  Symmetry=t1u

 Vector   55  Occ=0.000000D+00  E= 4.202456D-01  Symmetry=t1u

 Vector   56  Occ=0.000000D+00  E= 4.207888D-01  Symmetry=eu

 Vector   57  Occ=0.000000D+00  E= 4.207888D-01  Symmetry=eu

 Vector   58  Occ=0.000000D+00  E= 4.257658D-01  Symmetry=a1g

 Vector   59  Occ=0.000000D+00  E= 4.426371D-01  Symmetry=t2g

 Vector   60  Occ=0.000000D+00  E= 4.426371D-01  Symmetry=t2g

 Vector   61  Occ=0.000000D+00  E= 4.426371D-01  Symmetry=t2g

 Vector   62  Occ=0.000000D+00  E= 4.861952D-01  Symmetry=t1u

 Vector   63  Occ=0.000000D+00  E= 4.861952D-01  Symmetry=t1u

 Vector   64  Occ=0.000000D+00  E= 4.861952D-01  Symmetry=t1u

 Vector   65  Occ=0.000000D+00  E= 5.313374D-01  Symmetry=t1u

       Multipole analysis of the density wrt the origin
       ------------------------------------------------

     L   x y z        total         open         nuclear
     -   - - -        -----         ----         -------
     0   0 0 0      0.000000      0.000000     56.000000

     1   1 0 0     -0.000000      0.000000      0.000000
     1   0 1 0      0.000000      0.000000      0.000000
     1   0 0 1     -0.000000      0.000000      0.000000

     2   2 0 0    -34.925861      0.000000    161.150940
     2   1 1 0     -0.000000      0.000000      0.000000
     2   1 0 1     -0.000000      0.000000      0.000000
     2   0 2 0    -34.925861      0.000000    161.150940
     2   0 1 1     -0.000000      0.000000      0.000000

          Total MP2 energy          -308.759215832612
         Total SCF energy =   -307.482397998453
          Total MP2 energy          -308.759215832612
@    2    -308.75921583 -1.2D-06  0.00000  0.00000  0.00029  0.00038   2381.8
@    2    -308.75921583 -1.2D-06  0.00000  0.00000  0.00029  0.00038   2381.8

 Output coordinates in angstroms (scale by  1.889725989 to convert to a.u.)

  No.       Tag          Charge          X              Y              Z
 ---- ---------------- ---------- -------------- -------------- --------------
    1 H                    1.0000     1.40720075     1.40720075     1.40720075
    2 H                    1.0000    -1.40720075    -1.40720075     1.40720075
    3 H                    1.0000    -1.40720075     1.40720075    -1.40720075
    4 H                    1.0000     1.40720075    -1.40720075    -1.40720075
    5 H                    1.0000     1.40720075     1.40720075    -1.40720075
    6 H                    1.0000    -1.40720075    -1.40720075    -1.40720075
    7 H                    1.0000     1.40720075    -1.40720075     1.40720075
    8 H                    1.0000    -1.40720075     1.40720075     1.40720075
    9 C                    6.0000     0.78109371     0.78109371     0.78109371
   10 C                    6.0000    -0.78109371    -0.78109371     0.78109371
   11 C                    6.0000    -0.78109371     0.78109371    -0.78109371
   12 C                    6.0000     0.78109371    -0.78109371    -0.78109371
   13 C                    6.0000     0.78109371     0.78109371    -0.78109371
   14 C                    6.0000    -0.78109371    -0.78109371    -0.78109371
   15 C                    6.0000     0.78109371    -0.78109371     0.78109371
   16 C                    6.0000    -0.78109371     0.78109371     0.78109371

 Total times  cpu:     2727.4s     wall:     2381.8s
