         Total SCF energy =   -307.484508773976
          Total MP2 energy          -308.798029162460
@ Step       Energy      Delta E   Gmax     Grms     Xrms     Xmax   Walltime
@ ---- ---------------- -------- -------- -------- -------- -------- --------
@    0    -308.79802916  0.0D+00  0.00647  0.00178  0.00000  0.00000   3485.7
         Total SCF energy =   -307.486386641407
          Total MP2 energy          -308.798994677966
         Total SCF energy =   -307.486585167161
          Total MP2 energy          -308.799030292066
@    1    -308.79903029 -1.0D-03  0.00084  0.00025  0.00930  0.01152   8246.3
         Total SCF energy =   -307.486847621061
          Total MP2 energy          -308.799012246502
         Total SCF energy =   -307.486681795203

 Vector   26  Occ=2.000000D+00  E=-3.830470D-01  Symmetry=t2g

 Vector   27  Occ=2.000000D+00  E=-3.830470D-01  Symmetry=t2g

 Vector   28  Occ=2.000000D+00  E=-3.830470D-01  Symmetry=t2g

 Vector   29  Occ=0.000000D+00  E= 2.771927D-02  Symmetry=a1g

 Vector   30  Occ=0.000000D+00  E= 3.389686D-02  Symmetry=t1u

 Vector   31  Occ=0.000000D+00  E= 3.389686D-02  Symmetry=t1u

 Vector   32  Occ=0.000000D+00  E= 3.389686D-02  Symmetry=t1u

 Vector   33  Occ=0.000000D+00  E= 5.256345D-02  Symmetry=t2g

 Vector   34  Occ=0.000000D+00  E= 5.256345D-02  Symmetry=t2g

 Vector   35  Occ=0.000000D+00  E= 5.256345D-02  Symmetry=t2g

 Vector   36  Occ=0.000000D+00  E= 7.411799D-02  Symmetry=a2u

 Vector   37  Occ=0.000000D+00  E= 9.492235D-02  Symmetry=eg

 Vector   38  Occ=0.000000D+00  E= 9.492235D-02  Symmetry=eg

 Vector   39  Occ=0.000000D+00  E= 9.965967D-02  Symmetry=t1u

 Vector   40  Occ=0.000000D+00  E= 9.965967D-02  Symmetry=t1u

 Vector   41  Occ=0.000000D+00  E= 9.965967D-02  Symmetry=t1u

 Vector   42  Occ=0.000000D+00  E= 1.185173D-01  Symmetry=a1g

 Vector   43  Occ=0.000000D+00  E= 1.246890D-01  Symmetry=t2u

 Vector   44  Occ=0.000000D+00  E= 1.246890D-01  Symmetry=t2u

 Vector   45  Occ=0.000000D+00  E= 1.246890D-01  Symmetry=t2u

 Vector   46  Occ=0.000000D+00  E= 1.365478D-01  Symmetry=t1u

 Vector   47  Occ=0.000000D+00  E= 1.365478D-01  Symmetry=t1u

 Vector   48  Occ=0.000000D+00  E= 1.365478D-01  Symmetry=t1u

 Vector   49  Occ=0.000000D+00  E= 1.477803D-01  Symmetry=t2g

 Vector   50  Occ=0.000000D+00  E= 1.477803D-01  Symmetry=t2g

 Vector   51  Occ=0.000000D+00  E= 1.477803D-01  Symmetry=t2g

 Vector   52  Occ=0.000000D+00  E= 1.592708D-01  Symmetry=t2g

 Vector   53  Occ=0.000000D+00  E= 1.592708D-01  Symmetry=t2g

 Vector   54  Occ=0.000000D+00  E= 1.592708D-01  Symmetry=t2g

 Vector   55  Occ=0.000000D+00  E= 1.618765D-01  Symmetry=t1g

 Vector   56  Occ=0.000000D+00  E= 1.618765D-01  Symmetry=t1g

 Vector   57  Occ=0.000000D+00  E= 1.618765D-01  Symmetry=t1g

 Vector   58  Occ=0.000000D+00  E= 1.848328D-01  Symmetry=a2u

 Vector   59  Occ=0.000000D+00  E= 2.023081D-01  Symmetry=eu

 Vector   60  Occ=0.000000D+00  E= 2.023081D-01  Symmetry=eu

 Vector   61  Occ=0.000000D+00  E= 2.027412D-01  Symmetry=t1u

 Vector   62  Occ=0.000000D+00  E= 2.027412D-01  Symmetry=t1u

 Vector   63  Occ=0.000000D+00  E= 2.027412D-01  Symmetry=t1u

 Vector   64  Occ=0.000000D+00  E= 2.326732D-01  Symmetry=a1g

 Vector   65  Occ=0.000000D+00  E= 2.788981D-01  Symmetry=a1g

 Vector   66  Occ=0.000000D+00  E= 2.823826D-01  Symmetry=eg

 Vector   67  Occ=0.000000D+00  E= 2.823826D-01  Symmetry=eg

 Vector   68  Occ=0.000000D+00  E= 3.005969D-01  Symmetry=t1u

 Vector   69  Occ=0.000000D+00  E= 3.005969D-01  Symmetry=t1u

 Vector   70  Occ=0.000000D+00  E= 3.005969D-01  Symmetry=t1u

 Vector   71  Occ=0.000000D+00  E= 3.212364D-01  Symmetry=t2g

 Vector   72  Occ=0.000000D+00  E= 3.212364D-01  Symmetry=t2g

 Vector   73  Occ=0.000000D+00  E= 3.212364D-01  Symmetry=t2g

 Vector   74  Occ=0.000000D+00  E= 3.241325D-01  Symmetry=t2u

 Vector   75  Occ=0.000000D+00  E= 3.241325D-01  Symmetry=t2u

 Vector   76  Occ=0.000000D+00  E= 3.241325D-01  Symmetry=t2u

 Vector   77  Occ=0.000000D+00  E= 3.335629D-01  Symmetry=t1g

 Vector   78  Occ=0.000000D+00  E= 3.335629D-01  Symmetry=t1g

 Vector   79  Occ=0.000000D+00  E= 3.335629D-01  Symmetry=t1g

 Vector   80  Occ=0.000000D+00  E= 3.379063D-01  Symmetry=t1u

 Vector   81  Occ=0.000000D+00  E= 3.379063D-01  Symmetry=t1u

 Vector   82  Occ=0.000000D+00  E= 3.379063D-01  Symmetry=t1u

 Vector   83  Occ=0.000000D+00  E= 3.432461D-01  Symmetry=eg

 Vector   84  Occ=0.000000D+00  E= 3.432461D-01  Symmetry=eg

 Vector   85  Occ=0.000000D+00  E= 3.617300D-01  Symmetry=t2g

 Vector   86  Occ=0.000000D+00  E= 3.617300D-01  Symmetry=t2g

 Vector   87  Occ=0.000000D+00  E= 3.617300D-01  Symmetry=t2g

 Vector   88  Occ=0.000000D+00  E= 3.795304D-01  Symmetry=a2u

 Vector   89  Occ=0.000000D+00  E= 3.889353D-01  Symmetry=t1u

 Vector   90  Occ=0.000000D+00  E= 3.889353D-01  Symmetry=t1u

 Vector   91  Occ=0.000000D+00  E= 3.889353D-01  Symmetry=t1u

 Vector   92  Occ=0.000000D+00  E= 4.247101D-01  Symmetry=a1g

 Vector   93  Occ=0.000000D+00  E= 4.264426D-01  Symmetry=eu

 Vector   94  Occ=0.000000D+00  E= 4.264426D-01  Symmetry=eu

 Vector   95  Occ=0.000000D+00  E= 4.273082D-01  Symmetry=t1u

 Vector   96  Occ=0.000000D+00  E= 4.273082D-01  Symmetry=t1u

 Vector   97  Occ=0.000000D+00  E= 4.273082D-01  Symmetry=t1u

 Vector   98  Occ=0.000000D+00  E= 4.531428D-01  Symmetry=t1g

 Vector   99  Occ=0.000000D+00  E= 4.531428D-01  Symmetry=t1g

 Vector  100  Occ=0.000000D+00  E= 4.531428D-01  Symmetry=t1g

 Vector  101  Occ=0.000000D+00  E= 4.666162D-01  Symmetry=t2g

 Vector  102  Occ=0.000000D+00  E= 4.666162D-01  Symmetry=t2g

 Vector  103  Occ=0.000000D+00  E= 4.666162D-01  Symmetry=t2g

 Vector  104  Occ=0.000000D+00  E= 4.957752D-01  Symmetry=a1g

 Vector  105  Occ=0.000000D+00  E= 5.102588D-01  Symmetry=t2u

       Multipole analysis of the density wrt the origin
       ------------------------------------------------

     L   x y z        total         open         nuclear
     -   - - -        -----         ----         -------
     0   0 0 0      0.000000      0.000000     56.000000

     1   1 0 0      0.000000      0.000000      0.000000
     1   0 1 0      0.000000      0.000000      0.000000
     1   0 0 1     -0.000000      0.000000      0.000000

     2   2 0 0    -34.954988      0.000000    162.004611
     2   1 1 0      0.000000      0.000000      0.000000
     2   1 0 1     -0.000000      0.000000      0.000000
     2   0 2 0    -34.954988      0.000000    162.004611
     2   0 1 1      0.000000      0.000000      0.000000

          Total MP2 energy          -308.799028980226
@    2    -308.79902898  1.3D-06  0.00043  0.00012  0.00076  0.00090  13185.0
@    2    -308.79902898  1.3D-06  0.00043  0.00012  0.00076  0.00090  13185.0

 Output coordinates in angstroms (scale by  1.889725989 to convert to a.u.)

  No.       Tag          Charge          X              Y              Z
 ---- ---------------- ---------- -------------- -------------- --------------
    1 H                    1.0000     1.41016237     1.41016237     1.41016237
    2 H                    1.0000    -1.41016237    -1.41016237     1.41016237
    3 H                    1.0000    -1.41016237     1.41016237    -1.41016237
    4 H                    1.0000     1.41016237    -1.41016237    -1.41016237
    5 H                    1.0000     1.41016237     1.41016237    -1.41016237
    6 H                    1.0000    -1.41016237    -1.41016237    -1.41016237
    7 H                    1.0000     1.41016237    -1.41016237     1.41016237
    8 H                    1.0000    -1.41016237     1.41016237     1.41016237
    9 C                    6.0000     0.78338814     0.78338814     0.78338814
   10 C                    6.0000    -0.78338814    -0.78338814     0.78338814
   11 C                    6.0000    -0.78338814     0.78338814    -0.78338814
   12 C                    6.0000     0.78338814    -0.78338814    -0.78338814
   13 C                    6.0000     0.78338814     0.78338814    -0.78338814
   14 C                    6.0000    -0.78338814    -0.78338814    -0.78338814
   15 C                    6.0000     0.78338814    -0.78338814     0.78338814
   16 C                    6.0000    -0.78338814     0.78338814     0.78338814

 Total times  cpu:    15430.1s     wall:    13185.0s
