                         Program Version 4.0.0 -  RELEASE  -
|  1> # ================================================================
|  2> # Orca input file for cubane RI-MP2/cc-pVTZ geometry optimization
|  3> # ================================================================
|  4> ! RHF RI-MP2 cc-pVTZ cc-pVTZ/C TightSCF TightOPT UseSym
|  5> ! PAL4
|  6>
|  7> * xyz 0 1
|  8>   H      -1.410     -1.410     -1.410
|  9>   C      -0.783     -0.783     -0.783
| 10>   H      -1.410     -1.410      1.410
| 11>   C      -0.783     -0.783      0.783
| 12>   H      -1.410      1.410     -1.410
| 13>   C      -0.783      0.783     -0.783
| 14>   H       1.410     -1.410     -1.410
| 15>   C       0.783     -0.783     -0.783
| 16>   H      -1.410      1.410      1.410
| 17>   C      -0.783      0.783      0.783
| 18>   H       1.410     -1.410      1.410
| 19>   C       0.783     -0.783      0.783
| 20>   H       1.410      1.410     -1.410
| 21>   C       0.783      0.783     -0.783
| 22>   H       1.410      1.410      1.410
| 23>   C       0.783      0.783      0.783
| 24> *
| 25>
| 26>                          ****END OF INPUT****
 Total Charge           Charge          ....    0
 Multiplicity           Mult            ....    1
 Number of Electrons    NEL             ....   56
MP2 TOTAL ENERGY:     -308.778015094 Eh
FINAL SINGLE POINT ENERGY      -308.778015093524
                    ***********************HURRAY********************

CARTESIAN COORDINATES (ANGSTROEM)
---------------------------------
  H     -1.410018    1.410018    1.410018
  C     -0.783082    0.783082    0.783082
  H     -1.410018   -1.410018    1.410018
  C     -0.783082   -0.783082    0.783082
  H      1.410018    1.410018    1.410018
  C      0.783082    0.783082    0.783082
  H     -1.410018    1.410018   -1.410018
  C     -0.783082    0.783082   -0.783082
  H      1.410018   -1.410018    1.410018
  C      0.783082   -0.783082    0.783082
  H     -1.410018   -1.410018   -1.410018
  C     -0.783082   -0.783082   -0.783082
  H      1.410018    1.410018   -1.410018
  C      0.783082    0.783082   -0.783082
  H      1.410018   -1.410018   -1.410018
  C      0.783082   -0.783082   -0.783082

 Multiplicity           Mult            ....    1
 Number of Electrons    NEL             ....   56
 Basis Dimension        Dim             ....  352

ORBITAL ENERGIES
----------------

  NO   OCC          E(Eh)            E(eV)    Irrep
   0   2.0000     -11.221205      -305.3445    1-Ag
   1   2.0000     -11.220709      -305.3310    1-B2u
   2   2.0000     -11.220709      -305.3310    1-B3u
   3   2.0000     -11.220709      -305.3310    1-B1u
   4   2.0000     -11.220201      -305.3172    1-B1g
   5   2.0000     -11.220201      -305.3172    1-B3g
   6   2.0000     -11.220201      -305.3172    1-B2g
   7   2.0000     -11.219674      -305.3028    1-Au
   8   2.0000      -1.244415       -33.8623    2-Ag
   9   2.0000      -0.978507       -26.6265    2-B2u
  10   2.0000      -0.978507       -26.6265    2-B1u
  11   2.0000      -0.978507       -26.6265    2-B3u
  12   2.0000      -0.767631       -20.8883    2-B3g
  13   2.0000      -0.767631       -20.8883    2-B1g
  14   2.0000      -0.767631       -20.8883    2-B2g
  15   2.0000      -0.710434       -19.3319    3-Ag
  16   2.0000      -0.641231       -17.4488    2-Au
  17   2.0000      -0.580085       -15.7849    3-B2u
  18   2.0000      -0.580085       -15.7849    3-B1u
  19   2.0000      -0.580085       -15.7849    3-B3u
  20   2.0000      -0.579488       -15.7687    4-Ag
  21   2.0000      -0.579488       -15.7687    5-Ag
  22   2.0000      -0.390308       -10.6208    4-B2u
  23   2.0000      -0.390308       -10.6208    4-B1u
  24   2.0000      -0.390308       -10.6208    4-B3u
  25   2.0000      -0.383122       -10.4253    3-B3g
  26   2.0000      -0.383122       -10.4253    3-B1g
  27   2.0000      -0.383122       -10.4253    3-B2g
  28   0.0000       0.145279         3.9533    6-Ag
  29   0.0000       0.162839         4.4311    5-B2u
  30   0.0000       0.162839         4.4311    5-B1u
  31   0.0000       0.162839         4.4311    5-B3u
  32   0.0000       0.199760         5.4358    4-B3g

MULLIKEN ATOMIC CHARGES
-----------------------
   0 H :    0.157829
   1 C :   -0.157829
   2 H :    0.157829
   3 C :   -0.157829
   4 H :    0.157829
   5 C :   -0.157829
   6 H :    0.157829
   7 C :   -0.157829
   8 H :    0.157829
   9 C :   -0.157829
  10 H :    0.157829
  11 C :   -0.157829
  12 H :    0.157829
  13 C :   -0.157829
  14 H :    0.157829
  15 C :   -0.157829
Sum of atomic charges:    0.0000000

LOEWDIN ATOMIC CHARGES
----------------------
   0 H :   -0.058374
   1 C :    0.058374
   2 H :   -0.058374
   3 C :    0.058374
   4 H :   -0.058374
   5 C :    0.058374
   6 H :   -0.058374
   7 C :    0.058374
   8 H :   -0.058374
   9 C :    0.058374
  10 H :   -0.058374
  11 C :    0.058374
  12 H :   -0.058374
  13 C :    0.058374
  14 H :   -0.058374
  15 C :    0.058374

  Mayer bond orders larger than 0.1
B(  0-H ,  1-C ) :   0.9020 B(  1-C ,  3-C ) :   0.8768 B(  1-C ,  5-C ) :   0.8768
B(  1-C ,  7-C ) :   0.8768 B(  2-H ,  3-C ) :   0.9020 B(  3-C ,  9-C ) :   0.8768
B(  3-C , 11-C ) :   0.8768 B(  4-H ,  5-C ) :   0.9020 B(  5-C ,  9-C ) :   0.8768
B(  5-C , 13-C ) :   0.8768 B(  6-H ,  7-C ) :   0.9020 B(  7-C , 11-C ) :   0.8768
B(  7-C , 13-C ) :   0.8768 B(  8-H ,  9-C ) :   0.9020 B(  9-C , 15-C ) :   0.8768
B( 10-H , 11-C ) :   0.9020 B( 11-C , 15-C ) :   0.8768 B( 12-H , 13-C ) :   0.9020
B( 13-C , 15-C ) :   0.8768 B( 14-H , 15-C ) :   0.9020

MP2 TOTAL ENERGY:     -308.778015436 Eh
FINAL SINGLE POINT ENERGY      -308.778015435973

DIPOLE MOMENT
-------------
                                X             Y             Z
Electronic contribution:      0.00000      -0.00000       0.00000
Nuclear contribution   :     -0.00000       0.00000       0.00000
                        -----------------------------------------
Total Dipole Moment    :     -0.00000      -0.00000       0.00000
                        -----------------------------------------
Magnitude (a.u.)       :      0.00000
Magnitude (Debye)      :      0.00000

                             ****ORCA TERMINATED NORMALLY****
TOTAL RUN TIME: 0 days 0 hours 11 minutes 22 seconds 599 msec
