         Total SCF energy =   -307.486704180401
          Total MP2 energy          -309.168257379185
@ Step       Energy      Delta E   Gmax     Grms     Xrms     Xmax   Walltime
@ ---- ---------------- -------- -------- -------- -------- -------- --------
@    0    -309.16825738  0.0D+00  0.00205  0.00065  0.00000  0.00000   4697.6
         Total SCF energy =   -307.487220285579
          Total MP2 energy          -309.168377890522
         Total SCF energy =   -307.487271091817
          Total MP2 energy          -309.168379406660
@    1    -309.16837941 -1.2D-04  0.00031  0.00009  0.00532  0.00688  11671.3
         Total SCF energy =   -307.487271892431

 Vector   27  Occ=2.000000D+00  E=-3.831022D-01  Symmetry=t2g

 Vector   28  Occ=2.000000D+00  E=-3.831022D-01  Symmetry=t2g

 Vector   29  Occ=0.000000D+00  E= 1.440273D-01  Symmetry=a1g

 Vector   30  Occ=0.000000D+00  E= 1.625218D-01  Symmetry=t1u

 Vector   31  Occ=0.000000D+00  E= 1.625218D-01  Symmetry=t1u

 Vector   32  Occ=0.000000D+00  E= 1.625218D-01  Symmetry=t1u

 Vector   33  Occ=0.000000D+00  E= 1.973823D-01  Symmetry=t2g

 Vector   34  Occ=0.000000D+00  E= 1.973823D-01  Symmetry=t2g

 Vector   35  Occ=0.000000D+00  E= 1.973823D-01  Symmetry=t2g

 Vector   36  Occ=0.000000D+00  E= 2.231561D-01  Symmetry=t1u

 Vector   37  Occ=0.000000D+00  E= 2.231561D-01  Symmetry=t1u

 Vector   38  Occ=0.000000D+00  E= 2.231561D-01  Symmetry=t1u

 Vector   39  Occ=0.000000D+00  E= 2.288175D-01  Symmetry=a2u

 Vector   40  Occ=0.000000D+00  E= 3.502721D-01  Symmetry=t1g

 Vector   41  Occ=0.000000D+00  E= 3.502721D-01  Symmetry=t1g

 Vector   42  Occ=0.000000D+00  E= 3.502721D-01  Symmetry=t1g

 Vector   43  Occ=0.000000D+00  E= 3.633166D-01  Symmetry=t2g

 Vector   44  Occ=0.000000D+00  E= 3.633166D-01  Symmetry=t2g

 Vector   45  Occ=0.000000D+00  E= 3.633166D-01  Symmetry=t2g

 Vector   46  Occ=0.000000D+00  E= 3.728933D-01  Symmetry=eg

 Vector   47  Occ=0.000000D+00  E= 3.728933D-01  Symmetry=eg

 Vector   48  Occ=0.000000D+00  E= 3.792166D-01  Symmetry=a1g

 Vector   49  Occ=0.000000D+00  E= 4.330792D-01  Symmetry=t2u

 Vector   50  Occ=0.000000D+00  E= 4.330792D-01  Symmetry=t2u

 Vector   51  Occ=0.000000D+00  E= 4.330792D-01  Symmetry=t2u

 Vector   52  Occ=0.000000D+00  E= 4.853974D-01  Symmetry=eu

 Vector   53  Occ=0.000000D+00  E= 4.853974D-01  Symmetry=eu

 Vector   54  Occ=0.000000D+00  E= 4.957844D-01  Symmetry=t1u

 Vector   55  Occ=0.000000D+00  E= 4.957844D-01  Symmetry=t1u

 Vector   56  Occ=0.000000D+00  E= 4.957844D-01  Symmetry=t1u

 Vector   57  Occ=0.000000D+00  E= 5.620768D-01  Symmetry=a1g

          Total MP2 energy          -309.168381711701
         Total SCF energy =   -307.487271711826

 Vector    9  Occ=2.000000D+00  E=-1.247663D+00  Symmetry=a1g

 Vector   10  Occ=2.000000D+00  E=-9.800691D-01  Symmetry=t1u

 Vector   11  Occ=2.000000D+00  E=-9.800691D-01  Symmetry=t1u

 Vector   12  Occ=2.000000D+00  E=-9.800691D-01  Symmetry=t1u

 Vector   13  Occ=2.000000D+00  E=-7.678790D-01  Symmetry=t2g

 Vector   14  Occ=2.000000D+00  E=-7.678790D-01  Symmetry=t2g

 Vector   15  Occ=2.000000D+00  E=-7.678790D-01  Symmetry=t2g

 Vector   16  Occ=2.000000D+00  E=-7.117479D-01  Symmetry=a1g

 Vector   17  Occ=2.000000D+00  E=-6.408791D-01  Symmetry=a2u

 Vector   18  Occ=2.000000D+00  E=-5.813838D-01  Symmetry=eg

 Vector   19  Occ=2.000000D+00  E=-5.813838D-01  Symmetry=eg

 Vector   20  Occ=2.000000D+00  E=-5.808676D-01  Symmetry=t1u

 Vector   21  Occ=2.000000D+00  E=-5.808676D-01  Symmetry=t1u

 Vector   22  Occ=2.000000D+00  E=-5.808676D-01  Symmetry=t1u

 Vector   23  Occ=2.000000D+00  E=-3.910241D-01  Symmetry=t2u

 Vector   24  Occ=2.000000D+00  E=-3.910241D-01  Symmetry=t2u

 Vector   25  Occ=2.000000D+00  E=-3.910241D-01  Symmetry=t2u

 Vector   26  Occ=2.000000D+00  E=-3.831004D-01  Symmetry=t2g

 Vector   27  Occ=2.000000D+00  E=-3.831004D-01  Symmetry=t2g

 Vector   28  Occ=2.000000D+00  E=-3.831004D-01  Symmetry=t2g

 Vector   29  Occ=0.000000D+00  E= 1.440173D-01  Symmetry=a1g

 Vector   30  Occ=0.000000D+00  E= 1.625251D-01  Symmetry=t1u

 Vector   31  Occ=0.000000D+00  E= 1.625251D-01  Symmetry=t1u

 Vector   32  Occ=0.000000D+00  E= 1.625251D-01  Symmetry=t1u

 Vector   33  Occ=0.000000D+00  E= 1.973842D-01  Symmetry=t2g

 Vector   34  Occ=0.000000D+00  E= 1.973842D-01  Symmetry=t2g

 Vector   35  Occ=0.000000D+00  E= 1.973842D-01  Symmetry=t2g

 Vector   36  Occ=0.000000D+00  E= 2.231558D-01  Symmetry=t1u

 Vector   37  Occ=0.000000D+00  E= 2.231558D-01  Symmetry=t1u

 Vector   38  Occ=0.000000D+00  E= 2.231558D-01  Symmetry=t1u

 Vector   39  Occ=0.000000D+00  E= 2.288177D-01  Symmetry=a2u

 Vector   40  Occ=0.000000D+00  E= 3.502887D-01  Symmetry=t1g

 Vector   41  Occ=0.000000D+00  E= 3.502887D-01  Symmetry=t1g

 Vector   42  Occ=0.000000D+00  E= 3.502887D-01  Symmetry=t1g

 Vector   43  Occ=0.000000D+00  E= 3.633213D-01  Symmetry=t2g

 Vector   44  Occ=0.000000D+00  E= 3.633213D-01  Symmetry=t2g

 Vector   45  Occ=0.000000D+00  E= 3.633213D-01  Symmetry=t2g

 Vector   46  Occ=0.000000D+00  E= 3.728790D-01  Symmetry=eg

 Vector   47  Occ=0.000000D+00  E= 3.728790D-01  Symmetry=eg

 Vector   48  Occ=0.000000D+00  E= 3.792074D-01  Symmetry=a1g

 Vector   49  Occ=0.000000D+00  E= 4.330701D-01  Symmetry=t2u

 Vector   50  Occ=0.000000D+00  E= 4.330701D-01  Symmetry=t2u

 Vector   51  Occ=0.000000D+00  E= 4.330701D-01  Symmetry=t2u

 Vector   52  Occ=0.000000D+00  E= 4.854177D-01  Symmetry=eu

 Vector   53  Occ=0.000000D+00  E= 4.854177D-01  Symmetry=eu

 Vector   54  Occ=0.000000D+00  E= 4.957901D-01  Symmetry=t1u

 Vector   55  Occ=0.000000D+00  E= 4.957901D-01  Symmetry=t1u

 Vector   56  Occ=0.000000D+00  E= 4.957901D-01  Symmetry=t1u

 Vector   57  Occ=0.000000D+00  E= 5.620679D-01  Symmetry=a1g

       Multipole analysis of the density wrt the origin
       ------------------------------------------------

     L   x y z        total         open         nuclear
     -   - - -        -----         ----         -------
     0   0 0 0      0.000000      0.000000     56.000000

     1   1 0 0     -0.000000      0.000000      0.000000
     1   0 1 0      0.000000      0.000000      0.000000
     1   0 0 1     -0.000000      0.000000      0.000000

     2   2 0 0    -34.934497      0.000000    161.209991
     2   1 1 0     -0.000000      0.000000      0.000000
     2   1 0 1      0.000000      0.000000      0.000000
     2   0 2 0    -34.934497      0.000000    161.209991
     2   0 1 1     -0.000000      0.000000      0.000000

          Total MP2 energy          -309.168381746853
@    2    -309.16838175 -2.3D-06  0.00000  0.00000  0.00032  0.00044  18549.2
@    2    -309.16838175 -2.3D-06  0.00000  0.00000  0.00032  0.00044  18549.3

 Output coordinates in angstroms (scale by  1.889725989 to convert to a.u.)

  No.       Tag          Charge          X              Y              Z
 ---- ---------------- ---------- -------------- -------------- --------------
    1 H                    1.0000     1.40740294     1.40740294     1.40740294
    2 H                    1.0000    -1.40740294    -1.40740294     1.40740294
    3 H                    1.0000    -1.40740294     1.40740294    -1.40740294
    4 H                    1.0000     1.40740294    -1.40740294    -1.40740294
    5 H                    1.0000     1.40740294     1.40740294    -1.40740294
    6 H                    1.0000    -1.40740294    -1.40740294    -1.40740294
    7 H                    1.0000     1.40740294    -1.40740294     1.40740294
    8 H                    1.0000    -1.40740294     1.40740294     1.40740294
    9 C                    6.0000     0.78125350     0.78125350     0.78125350
   10 C                    6.0000    -0.78125350    -0.78125350     0.78125350
   11 C                    6.0000    -0.78125350     0.78125350    -0.78125350
   12 C                    6.0000     0.78125350    -0.78125350    -0.78125350
   13 C                    6.0000     0.78125350     0.78125350    -0.78125350
   14 C                    6.0000    -0.78125350    -0.78125350    -0.78125350
   15 C                    6.0000     0.78125350    -0.78125350     0.78125350
   16 C                    6.0000    -0.78125350     0.78125350     0.78125350

 Total times  cpu:    24791.9s     wall:    18549.6s
