                         Program Version 3.0.3 - RELEASE   -
|  1> # ================================================================
|  2> # Orca input file for cubane B3LYP/def2-SVP geometry optimization
|  3> # ================================================================
|  4> ! DFT B3LYP def2-SVP TightSCF TightOPT UseSym
|  5> #! PAL4
|  6>
|  7> * xyz 0 3
|  8>   H                     2.06558205    -1.28286326     0.02211469
|  9>   C                     1.07464059    -0.80757103    -0.05079586
| 10>   H                     2.06558205     1.28286326     0.02211469
| 11>   C                     1.07464059     0.80757103    -0.05079586
| 12>   H                     0.00000000    -1.50306671    -2.05955799
| 13>   C                     0.00000000    -1.33057164    -0.97564719
| 14>   H                     0.00000000     1.50306671    -2.05955799
| 15>   C                     0.00000000     1.33057164    -0.97564719
| 16>   H                     0.00000000    -1.45938535     1.96899476
| 17>   C                     0.00000000    -0.77726259     1.10647220
| 18>   H                     0.00000000     1.45938535     1.96899476
| 19>   C                     0.00000000     0.77726259     1.10647220
| 20>   H                    -2.06558205    -1.28286326     0.02211469
| 21>   C                    -1.07464059    -0.80757103    -0.05079586
| 22>   H                    -2.06558205     1.28286326     0.02211469
| 23>   C                    -1.07464059     0.80757103    -0.05079586
| 24> *
| 25>
| 26>                          ****END OF INPUT****
 Total Charge           Charge          ....    0
 Multiplicity           Mult            ....    3
 Number of Electrons    NEL             ....   56
FINAL SINGLE POINT ENERGY      -308.970670678867
FINAL SINGLE POINT ENERGY      -308.970960393181
FINAL SINGLE POINT ENERGY      -308.971092207540
FINAL SINGLE POINT ENERGY      -308.971136489746
FINAL SINGLE POINT ENERGY      -308.971165802751
FINAL SINGLE POINT ENERGY      -308.971173019497
FINAL SINGLE POINT ENERGY      -308.971174671944
FINAL SINGLE POINT ENERGY      -308.971174885222
                    ***********************HURRAY********************

CARTESIAN COORDINATES (ANGSTROEM)
---------------------------------
  H      2.061820    1.288448   -0.014614
  C      1.072515    0.812119    0.061042
  H      2.061820   -1.288441   -0.014528
  C      1.072512   -0.812110    0.061082
  H      0.000050    1.615263    2.035590
  C      0.000022    1.329809    0.978476
  H     -0.000050   -1.615255    2.035593
  C     -0.000022   -1.329809    0.978477
  H     -0.000043    1.448215   -1.954331
  C     -0.000021    0.772260   -1.088850
  H      0.000043   -1.448211   -1.954335
  C      0.000021   -0.772259   -1.088852
  H     -2.061821    1.288437   -0.014527
  C     -1.072513    0.812107    0.061083
  H     -2.061819   -1.288452   -0.014615
  C     -1.072514   -0.812121    0.061040

 Multiplicity           Mult            ....    3
 Number of Electrons    NEL             ....   56
 Basis Dimension        Dim             ....  152

ORBITAL ENERGIES
----------------
                 SPIN UP ORBITALS
  NO   OCC          E(Eh)            E(eV)    Irrep
   0   1.0000     -10.191331      -277.3202    1-B2
   1   1.0000     -10.191260      -277.3183    1-A2
   2   1.0000     -10.191256      -277.3182    1-A1
   3   1.0000     -10.191183      -277.3162    1-B1
   4   1.0000     -10.188314      -277.2381    2-B2
   5   1.0000     -10.188150      -277.2337    2-A1
   6   1.0000     -10.186315      -277.1837    3-A1
   7   1.0000     -10.186275      -277.1826    3-B2
   8   1.0000      -0.922471       -25.1017    4-A1
   9   1.0000      -0.776379       -21.1263    4-B2
  10   1.0000      -0.704110       -19.1598    2-B1
  11   1.0000      -0.687425       -18.7058    5-A1
  12   1.0000      -0.574859       -15.6427    5-B2
  13   1.0000      -0.567786       -15.4502    2-A2
  14   1.0000      -0.549654       -14.9569    6-A1
  15   1.0000      -0.523419       -14.2430    7-A1
  16   1.0000      -0.468337       -12.7441    6-B2
  17   1.0000      -0.464490       -12.6394    8-A1
  18   1.0000      -0.448107       -12.1936    7-B2
  19   1.0000      -0.426933       -11.6174    3-B1
  20   1.0000      -0.391411       -10.6508    9-A1
  21   1.0000      -0.379530       -10.3275    4-B1
  22   1.0000      -0.319990        -8.7074    3-A2
  23   1.0000      -0.314927        -8.5696    5-B1
  24   1.0000      -0.287306        -7.8180    8-B2
  25   1.0000      -0.287278        -7.8172   10-A1
  26   1.0000      -0.266084        -7.2405    4-A2
  27   1.0000      -0.213362        -5.8059    9-B2
  28   1.0000      -0.170708        -4.6452   11-A1
  29   0.0000       0.064863         1.7650   12-A1
  30   0.0000       0.077193         2.1005   13-A1
  31   0.0000       0.082429         2.2430    6-B1
  32   0.0000       0.110612         3.0099   10-B2
  33   0.0000       0.118808         3.2329   14-A1

                 SPIN DOWN ORBITALS
  NO   OCC          E(Eh)            E(eV)    Irrep
   0   1.0000     -10.190625      -277.3010    1-B2
   1   1.0000     -10.190567      -277.2994    1-A2
   2   1.0000     -10.190554      -277.2991    1-A1
   3   1.0000     -10.190485      -277.2972    1-B1
   4   1.0000     -10.185529      -277.1623    2-A1
   5   1.0000     -10.185490      -277.1613    2-B2
   6   1.0000     -10.174261      -276.8557    3-B2
   7   1.0000     -10.174106      -276.8515    3-A1
   8   1.0000      -0.913701       -24.8631    4-A1
   9   1.0000      -0.759200       -20.6589    4-B2
  10   1.0000      -0.698252       -19.0004    2-B1
  11   1.0000      -0.670218       -18.2376    5-A1
  12   1.0000      -0.564082       -15.3495    2-A2
  13   1.0000      -0.558218       -15.1899    5-B2
  14   1.0000      -0.535003       -14.5582    6-A1
  15   1.0000      -0.517461       -14.0808    7-A1
  16   1.0000      -0.460878       -12.5411    6-B2
  17   1.0000      -0.451223       -12.2784    8-A1
  18   1.0000      -0.443504       -12.0684    7-B2
  19   1.0000      -0.422943       -11.5089    3-B1
  20   1.0000      -0.373012       -10.1502    4-B1
  21   1.0000      -0.369664       -10.0591    9-A1
  22   1.0000      -0.311100        -8.4655    3-A2
  23   1.0000      -0.305120        -8.3027    5-B1
  24   1.0000      -0.281343        -7.6557    8-B2
  25   1.0000      -0.280993        -7.6462   10-A1
  26   1.0000      -0.264375        -7.1940    4-A2
  27   0.0000      -0.063705        -1.7335    9-B2
  28   0.0000      -0.036609        -0.9962   11-A1
  29   0.0000       0.068549         1.8653   12-A1
  30   0.0000       0.083808         2.2805    6-B1
  31   0.0000       0.085460         2.3255   13-A1

MULLIKEN ATOMIC CHARGES AND SPIN POPULATIONS
--------------------------------------------
   0 H :   -0.006256    0.018329
   1 C :    0.048009   -0.025561
   2 H :   -0.006257    0.018329
   3 C :    0.047914   -0.025560
   4 H :    0.000824   -0.031513
   5 C :   -0.006554    1.016355
   6 H :    0.000825   -0.031513
   7 C :   -0.006556    1.016357
   8 H :   -0.017022    0.002687
   9 C :   -0.060658    0.026933
  10 H :   -0.017022    0.002687
  11 C :   -0.060656    0.026934
  12 H :   -0.006257    0.018328
  13 C :    0.047913   -0.025559
  14 H :   -0.006256    0.018329
  15 C :    0.048010   -0.025562
Sum of atomic charges         :    0.0000000

LOEWDIN ATOMIC CHARGES AND SPIN POPULATIONS
-------------------------------------------
   0 H :    0.010842    0.014724
   1 C :   -0.014276    0.047044
   2 H :    0.010842    0.014724
   3 C :   -0.014276    0.047044
   4 H :    0.001708    0.004949
   5 C :   -0.000600    0.844829
   6 H :    0.001708    0.004949
   7 C :   -0.000600    0.844829
   8 H :    0.007911    0.001711
   9 C :   -0.002152    0.024974
  10 H :    0.007911    0.001711
  11 C :   -0.002152    0.024974
  12 H :    0.010842    0.014724
  13 C :   -0.014276    0.047044
  14 H :    0.010842    0.014724
  15 C :   -0.014276    0.047044

  Mayer bond orders larger than 0.1
B(  0-H ,  1-C ) :   0.9677 B(  1-C ,  3-C ) :   0.9566 B(  1-C ,  5-C ) :   0.9600
B(  1-C ,  9-C ) :   0.9492 B(  2-H ,  3-C ) :   0.9677 B(  3-C ,  7-C ) :   0.9600
B(  3-C , 11-C ) :   0.9491 B(  4-H ,  5-C ) :   0.9684 B(  5-C , 13-C ) :   0.9600
B(  6-H ,  7-C ) :   0.9684 B(  7-C , 15-C ) :   0.9600 B(  8-H ,  9-C ) :   1.0443
B(  9-C , 11-C ) :   0.9059 B(  9-C , 13-C ) :   0.9491 B( 10-H , 11-C ) :   1.0443
B( 11-C , 15-C ) :   0.9492 B( 12-H , 13-C ) :   0.9677 B( 13-C , 15-C ) :   0.9566
B( 14-H , 15-C ) :   0.9677

FINAL SINGLE POINT ENERGY      -308.971175061630

DIPOLE MOMENT
-------------
                                X             Y             Z
Electronic contribution:     -0.00000      -0.00001      -0.12680
Nuclear contribution   :      0.00000       0.00001       0.06988
                        -----------------------------------------
Total Dipole Moment    :      0.00000       0.00000      -0.05692
                        -----------------------------------------
Magnitude (a.u.)       :      0.05692
Magnitude (Debye)      :      0.14468

                             ****ORCA TERMINATED NORMALLY****
TOTAL RUN TIME: 0 days 0 hours 9 minutes 8 seconds 825 msec
