                         Program Version 4.2.0 -  RELEASE  -
|  1> # ================================================================
|  2> # Orca input file for cubane B3LYP/def2-SVP geometry optimization
|  3> # ================================================================
|  4> ! DFT B3LYP def2-SVP TightSCF TightOPT UseSym
|  5> ! NumGrad
|  6> ! PAL4
|  7>
|  8> %scf
|  9>   HFTyp ROHF
| 10> end
| 11>
| 12> * xyz 0 3
| 13>   H       2.061000     -1.291000      0.025000
| 14>   C       1.072000     -0.813000     -0.052000
| 15>   H       2.061000      1.290000      0.025000
| 16>   C       1.072000      0.812000     -0.052000
| 17>   H       0.000000     -1.576000     -2.039000
| 18>   C       0.000000     -1.328000     -0.972000
| 19>   H       0.000000      1.576000     -2.039000
| 20>   C       0.000000      1.328000     -0.972000
| 21>   H       0.000000     -1.447000      1.963000
| 22>   C       0.000000     -0.772000      1.096000
| 23>   H       0.000000      1.447000      1.963000
| 24>   C       0.000000      0.772000      1.096000
| 25>   H      -2.061002     -1.291000      0.018000
| 26>   C      -1.072000     -0.813000     -0.053000
| 27>   H      -2.061000      1.290000      0.018000
| 28>   C      -1.072000      0.812000     -0.053000
| 29> *
| 30>
| 31>                          ****END OF INPUT****
 Total Charge           Charge          ....    0
 Multiplicity           Mult            ....    3
 Number of Electrons    NEL             ....   56
FINAL SINGLE POINT ENERGY      -308.968561332579
FINAL SINGLE POINT ENERGY      -308.968563253520
FINAL SINGLE POINT ENERGY      -308.968562446239
                    ***********************HURRAY********************

CARTESIAN COORDINATES (ANGSTROEM)
---------------------------------
  H      2.060205   -1.291734    0.027698
  C      1.072109   -0.813320   -0.051412
  H      2.060636    1.290631    0.020227
  C      1.072112    0.812202   -0.052816
  H      0.001686   -1.574597   -2.039579
  C      0.001068   -1.328489   -0.972009
  H     -0.000210    1.576284   -2.038828
  C      0.000138    1.327748   -0.971874
  H     -0.001062   -1.448414    1.962572
  C     -0.000928   -0.772878    1.096895
  H     -0.000033    1.447262    1.963035
  C     -0.000402    0.772219    1.096962
  H     -2.060570   -1.291532    0.018111
  C     -1.071969   -0.813009   -0.053824
  H     -2.060660    1.291053    0.019991
  C     -1.072122    0.812573   -0.053148

 Multiplicity           Mult            ....    3
 Number of Electrons    NEL             ....   56
 Basis Dimension        Dim             ....  152

ORBITAL ENERGIES
----------------

  NO   OCC          E(Eh)            E(eV)
   0   2.0000     -10.191268      -277.3185
   1   2.0000     -10.191207      -277.3168
   2   2.0000     -10.191188      -277.3163
   3   2.0000     -10.191119      -277.3144
   4   2.0000     -10.186079      -277.1773
   5   2.0000     -10.185935      -277.1734
   6   2.0000     -10.182365      -277.0762
   7   2.0000     -10.182193      -277.0716
   8   2.0000      -0.918248       -24.9868
   9   2.0000      -0.767674       -20.8895
  10   2.0000      -0.701141       -19.0790
  11   2.0000      -0.679034       -18.4775
  12   2.0000      -0.566641       -15.4191
  13   2.0000      -0.566232       -15.4080
  14   2.0000      -0.541825       -14.7438
  15   2.0000      -0.520302       -14.1581
  16   2.0000      -0.464731       -12.6460
  17   2.0000      -0.458049       -12.4641
  18   2.0000      -0.445956       -12.1351
  19   2.0000      -0.425207       -11.5705
  20   2.0000      -0.377521       -10.2729
  21   2.0000      -0.376468       -10.2442
  22   2.0000      -0.315845        -8.5946
  23   2.0000      -0.309808        -8.4303
  24   2.0000      -0.284365        -7.7380
  25   2.0000      -0.284291        -7.7360
  26   2.0000      -0.265563        -7.2263
  27   1.0000      -0.213295        -5.8041
  28   1.0000      -0.177133        -4.8200
  29   0.0000       0.065273         1.7762
  30   0.0000       0.076809         2.0901
  31   0.0000       0.082122         2.2347
  32   0.0000       0.110693         3.0121
  33   0.0000       0.117548         3.1986

MULLIKEN ATOMIC CHARGES AND SPIN POPULATIONS
--------------------------------------------
   0 H :   -0.005642    0.012880
   1 C :    0.044917    0.044211
   2 H :   -0.005637    0.012883
   3 C :    0.043933    0.044218
   4 H :    0.002868    0.010508
   5 C :   -0.003566    0.852016
   6 H :    0.002741    0.010502
   7 C :   -0.003757    0.851789
   8 H :   -0.017058    0.003357
   9 C :   -0.059620    0.019953
  10 H :   -0.017037    0.003393
  11 C :   -0.059282    0.020040
  12 H :   -0.005598    0.012898
  13 C :    0.044056    0.044263
  14 H :   -0.005657    0.012875
  15 C :    0.044340    0.044216
Sum of atomic charges         :   -0.0000000

LOEWDIN ATOMIC CHARGES AND SPIN POPULATIONS
-------------------------------------------
   0 H :    0.011057    0.013113
   1 C :   -0.014458    0.070213
   2 H :    0.011032    0.013111
   3 C :   -0.014493    0.070227
   4 H :    0.001689    0.022988
   5 C :   -0.000416    0.786980
   6 H :    0.001690    0.022987
   7 C :   -0.000477    0.786766
   8 H :    0.007968    0.002563
   9 C :   -0.002458    0.020783
  10 H :    0.007985    0.002588
  11 C :   -0.002239    0.020937
  12 H :    0.011040    0.013125
  13 C :   -0.014514    0.070300
  14 H :    0.011055    0.013100
  15 C :   -0.014462    0.070219

  Mayer bond orders larger than 0.100000
B(  0-H ,  1-C ) :   0.9683 B(  1-C ,  3-C ) :   0.9416 B(  1-C ,  5-C ) :   1.0772
B(  1-C ,  9-C ) :   0.9527 B(  2-H ,  3-C ) :   0.9686 B(  3-C ,  7-C ) :   1.0773
B(  3-C , 11-C ) :   0.9519 B(  4-H ,  5-C ) :   1.0382 B(  5-C , 13-C ) :   1.0776
B(  6-H ,  7-C ) :   1.0385 B(  7-C , 15-C ) :   1.0772 B(  8-H ,  9-C ) :   1.0482
B(  9-C , 11-C ) :   0.9028 B(  9-C , 13-C ) :   0.9522 B( 10-H , 11-C ) :   1.0483
B( 11-C , 15-C ) :   0.9516 B( 12-H , 13-C ) :   0.9687 B( 13-C , 15-C ) :   0.9412
B( 14-H , 15-C ) :   0.9687

FINAL SINGLE POINT ENERGY      -308.968563990824

DIPOLE MOMENT
-------------
                                X             Y             Z
Electronic contribution:      0.00083      -0.00119      -1.40995
Nuclear contribution   :     -0.00001       0.00165      -0.09135
                        -----------------------------------------
Total Dipole Moment    :      0.00082       0.00046      -1.50130
                        -----------------------------------------
Magnitude (a.u.)       :      1.50130
Magnitude (Debye)      :      3.81600

Rotational constants in cm-1:     0.120223     0.097849     0.095382
Rotational constants in MHz :  3604.187484  2933.450472  2859.481697

                             ****ORCA TERMINATED NORMALLY****
TOTAL RUN TIME: 0 days 0 hours 28 minutes 58 seconds 300 msec
