 Output coordinates in angstroms (scale by  1.889725989 to convert to a.u.)

  No.       Tag          Charge          X              Y              Z
 ---- ---------------- ---------- -------------- -------------- --------------
    1 H                    1.0000     1.42503470     1.42503470     1.42503472
    2 H                    1.0000    -1.42503470    -1.42503470     1.42503472
    3 H                    1.0000    -1.42503470     1.42503470    -1.42503472
    4 H                    1.0000     1.42503470    -1.42503470    -1.42503472
    5 H                    1.0000    -1.42503470    -1.42503470    -1.42503472
    6 H                    1.0000     1.42503470     1.42503470    -1.42503472
    7 H                    1.0000     1.42503470    -1.42503470     1.42503472
    8 H                    1.0000    -1.42503470     1.42503470     1.42503472
    9 C                    6.0000     0.78961438     0.78961438     0.78961439
   10 C                    6.0000    -0.78961438    -0.78961438     0.78961439
   11 C                    6.0000    -0.78961438     0.78961438    -0.78961439
   12 C                    6.0000     0.78961438    -0.78961438    -0.78961439
   13 C                    6.0000    -0.78961438    -0.78961438    -0.78961439
   14 C                    6.0000     0.78961438     0.78961438    -0.78961439
   15 C                    6.0000     0.78961438    -0.78961438     0.78961439
   16 C                    6.0000    -0.78961438     0.78961438     0.78961439

         Total SCF energy =   -307.412387400081

 Vector    9  Occ=2.000000D+00  E=-1.237663D+00  Symmetry=ag

 Vector   10  Occ=2.000000D+00  E=-9.754164D-01  Symmetry=b1u

 Vector   11  Occ=2.000000D+00  E=-9.754164D-01  Symmetry=b3u

 Vector   12  Occ=2.000000D+00  E=-9.754164D-01  Symmetry=b2u

 Vector   13  Occ=2.000000D+00  E=-7.658561D-01  Symmetry=b3g

 Vector   14  Occ=2.000000D+00  E=-7.658561D-01  Symmetry=b2g

 Vector   15  Occ=2.000000D+00  E=-7.658561D-01  Symmetry=b1g

 Vector   16  Occ=2.000000D+00  E=-7.039834D-01  Symmetry=ag

 Vector   17  Occ=2.000000D+00  E=-6.394176D-01  Symmetry=au

 Vector   18  Occ=2.000000D+00  E=-5.764352D-01  Symmetry=b1u

 Vector   19  Occ=2.000000D+00  E=-5.764352D-01  Symmetry=b2u

 Vector   20  Occ=2.000000D+00  E=-5.764352D-01  Symmetry=b3u

 Vector   21  Occ=2.000000D+00  E=-5.744359D-01  Symmetry=ag

 Vector   22  Occ=2.000000D+00  E=-5.744359D-01  Symmetry=ag

 Vector   23  Occ=2.000000D+00  E=-3.891460D-01  Symmetry=b1u

 Vector   24  Occ=2.000000D+00  E=-3.891460D-01  Symmetry=b3u

 Vector   25  Occ=2.000000D+00  E=-3.891460D-01  Symmetry=b2u

 Vector   26  Occ=2.000000D+00  E=-3.841260D-01  Symmetry=b3g

 Vector   27  Occ=2.000000D+00  E=-3.841260D-01  Symmetry=b2g

 Vector   28  Occ=2.000000D+00  E=-3.841260D-01  Symmetry=b1g

 Vector   29  Occ=0.000000D+00  E= 1.816660D-01  Symmetry=ag

 Vector   30  Occ=0.000000D+00  E= 2.026365D-01  Symmetry=b1u

 Vector   31  Occ=0.000000D+00  E= 2.026365D-01  Symmetry=b3u

 Vector   32  Occ=0.000000D+00  E= 2.026365D-01  Symmetry=b2u

 Vector   33  Occ=0.000000D+00  E= 2.533836D-01  Symmetry=b3g

 Vector   34  Occ=0.000000D+00  E= 2.533836D-01  Symmetry=b2g

 Vector   35  Occ=0.000000D+00  E= 2.533836D-01  Symmetry=b1g

 Vector   36  Occ=0.000000D+00  E= 2.568969D-01  Symmetry=b1u

 Vector   37  Occ=0.000000D+00  E= 2.568969D-01  Symmetry=b3u

 Vector   38  Occ=0.000000D+00  E= 2.568969D-01  Symmetry=b2u

 Vector   39  Occ=0.000000D+00  E= 2.639503D-01  Symmetry=au

 Vector   40  Occ=0.000000D+00  E= 3.683779D-01  Symmetry=b2g

 Vector   41  Occ=0.000000D+00  E= 3.683779D-01  Symmetry=b3g

 Vector   42  Occ=0.000000D+00  E= 3.683779D-01  Symmetry=b1g

 Vector   43  Occ=0.000000D+00  E= 4.469776D-01  Symmetry=b2g

 Vector   44  Occ=0.000000D+00  E= 4.469776D-01  Symmetry=b3g

 Vector   45  Occ=0.000000D+00  E= 4.469776D-01  Symmetry=b1g

 Vector   46  Occ=0.000000D+00  E= 4.941383D-01  Symmetry=ag

 Vector   47  Occ=0.000000D+00  E= 5.194599D-01  Symmetry=au

       Multipole analysis of the density wrt the origin
       ------------------------------------------------

     L   x y z        total         open         nuclear
     -   - - -        -----         ----         -------
     0   0 0 0      0.000000      0.000000     56.000000

     1   1 0 0     -0.000000      0.000000      0.000000
     1   0 1 0     -0.000000      0.000000      0.000000
     1   0 0 1     -0.000000      0.000000      0.000000

     2   2 0 0    -35.237770      0.000000    164.888013
     2   1 1 0      0.000000      0.000000      0.000000
     2   1 0 1     -0.000000      0.000000      0.000000
     2   0 2 0    -35.237770      0.000000    164.888013
     2   0 1 1      0.000000      0.000000      0.000000

 CCSD total energy / hartree       =      -308.543106310875601
         Total SCF energy =   -307.412390970082
 CCSD total energy / hartree       =      -308.543104621987595
         Total SCF energy =   -307.412330960051
 CCSD total energy / hartree       =      -308.543097537184281
         Total SCF energy =   -307.412436136818
 CCSD total energy / hartree       =      -308.543097513707096
         Total SCF energy =   -307.412330945027
 CCSD total energy / hartree       =      -308.543097525846349
         Total SCF energy =   -307.412436151403
 CCSD total energy / hartree       =      -308.543097524633595
         Total SCF energy =   -307.412330959706
 CCSD total energy / hartree       =      -308.543097536862547
         Total SCF energy =   -307.412436136368
 CCSD total energy / hartree       =      -308.543097513275484
         Total SCF energy =   -307.412330951855
 CCSD total energy / hartree       =      -308.543097531645230
         Total SCF energy =   -307.412436144803
 CCSD total energy / hartree       =      -308.543097519051912
         Total SCF energy =   -307.412330945606
 CCSD total energy / hartree       =      -308.543097525656606
         Total SCF energy =   -307.412436150820
 CCSD total energy / hartree       =      -308.543097524826123
         Total SCF energy =   -307.412330962505
 CCSD total energy / hartree       =      -308.543097540955443
         Total SCF energy =   -307.412436133670
 CCSD total energy / hartree       =      -308.543097509296729
         Total SCF energy =   -307.412330945482
 CCSD total energy / hartree       =      -308.543097525528367
         Total SCF energy =   -307.412436150893
 CCSD total energy / hartree       =      -308.543097524895984
         Total SCF energy =   -307.412331945831
 CCSD total energy / hartree       =      -308.543098555139977
         Total SCF energy =   -307.412435131104
 CCSD total energy / hartree       =      -308.543096475727452
         Total SCF energy =   -307.412330929606
 CCSD total energy / hartree       =      -308.543097508735570
         Total SCF energy =   -307.412436167263
 CCSD total energy / hartree       =      -308.543097542189685
         Total SCF energy =   -307.412330951421
 CCSD total energy / hartree       =      -308.543097531295018
         Total SCF energy =   -307.412436145068
 CCSD total energy / hartree       =      -308.543097519253251
         Total SCF energy =   -307.412330951863
 CCSD total energy / hartree       =      -308.543097531652279
         Total SCF energy =   -307.412436144683
 CCSD total energy / hartree       =      -308.543097518933450
         Total SCF energy =   -307.412330957828
 CCSD total energy / hartree       =      -308.543097538747475
         Total SCF energy =   -307.412436138435
 CCSD total energy / hartree       =      -308.543097511593942
         Total SCF energy =   -307.412330954951
 CCSD total energy / hartree       =      -308.543097534475578
         Total SCF energy =   -307.412436141496
 CCSD total energy / hartree       =      -308.543097516035971
         Total SCF energy =   -307.412330945603
 CCSD total energy / hartree       =      -308.543097525653081
         Total SCF energy =   -307.412436150675
 CCSD total energy / hartree       =      -308.543097524683333
         Total SCF energy =   -307.412330959724
 CCSD total energy / hartree       =      -308.543097536880111
         Total SCF energy =   -307.412436136226
 CCSD total energy / hartree       =      -308.543097513135308
         Total SCF energy =   -307.412330949214
 CCSD total energy / hartree       =      -308.543097529571071
         Total SCF energy =   -307.412436146872
 CCSD total energy / hartree       =      -308.543097520541266
         Total SCF energy =   -307.412330945479
 CCSD total energy / hartree       =      -308.543097525524445
         Total SCF energy =   -307.412436150744
 CCSD total energy / hartree       =      -308.543097524749214
         Total SCF energy =   -307.412330960051
 CCSD total energy / hartree       =      -308.543097537184053
         Total SCF energy =   -307.412436136654
 CCSD total energy / hartree       =      -308.543097513544637
         Total SCF energy =   -307.412330949185
 CCSD total energy / hartree       =      -308.543097529541853
         Total SCF energy =   -307.412436146868
 CCSD total energy / hartree       =      -308.543097520537685
         Total SCF energy =   -307.412330962529
 CCSD total energy / hartree       =      -308.543097540978692
         Total SCF energy =   -307.412436133530
 CCSD total energy / hartree       =      -308.543097509158542
         Total SCF energy =   -307.412330957824
 CCSD total energy / hartree       =      -308.543097538742984
         Total SCF energy =   -307.412436138432
 CCSD total energy / hartree       =      -308.543097511591668
         Total SCF energy =   -307.412331945761
 CCSD total energy / hartree       =      -308.543098555069832
         Total SCF energy =   -307.412435130924
 CCSD total energy / hartree       =      -308.543096475549817
         Total SCF energy =   -307.412330945029
 CCSD total energy / hartree       =      -308.543097525847827
         Total SCF energy =   -307.412436151241
 CCSD total energy / hartree       =      -308.543097524473751
         Total SCF energy =   -307.412332432555
 CCSD total energy / hartree       =      -308.543098946708994
         Total SCF energy =   -307.412434658074
 CCSD total energy / hartree       =      -308.543096098551302
         Total SCF energy =   -307.412318220868
 CCSD total energy / hartree       =      -308.543080853861909
         Total SCF energy =   -307.412410019684
 CCSD total energy / hartree       =      -308.543081100093673
         Total SCF energy =   -307.412318189968
 CCSD total energy / hartree       =      -308.543080270339203
         Total SCF energy =   -307.412405249805
 CCSD total energy / hartree       =      -308.543077665648809
         Total SCF energy =   -307.412318648246
 CCSD total energy / hartree       =      -308.543080473534019
         Total SCF energy =   -307.412408789376
 CCSD total energy / hartree       =      -308.543080817582108
         Total SCF energy =   -307.412321784615
 CCSD total energy / hartree       =      -308.543081361145596
         Total SCF energy =   -307.412406991519
 CCSD total energy / hartree       =      -308.543081336403077
         Total SCF energy =   -307.412320620454
 CCSD total energy / hartree       =      -308.543079139292900
         Total SCF energy =   -307.412403185455
 CCSD total energy / hartree       =      -308.543079188805564
         Total SCF energy =   -307.412324652598
 CCSD total energy / hartree       =      -308.543082585543345
         Total SCF energy =   -307.412406128670
 CCSD total energy / hartree       =      -308.543082047816995
         Total SCF energy =   -307.412320056144
 CCSD total energy / hartree       =      -308.543079563374590
         Total SCF energy =   -307.412405358869
 CCSD total energy / hartree       =      -308.543079796811924
         Total SCF energy =   -307.412323106731
 CCSD total energy / hartree       =      -308.543080135149353
         Total SCF energy =   -307.412403804715
 CCSD total energy / hartree       =      -308.543080485999042
         Total SCF energy =   -307.412321374085
 CCSD total energy / hartree       =      -308.543079713975715
         Total SCF energy =   -307.412404432539
 CCSD total energy / hartree       =      -308.543080072839302
         Total SCF energy =   -307.412320377746
 CCSD total energy / hartree       =      -308.543079980369839
         Total SCF energy =   -307.412403119169
 CCSD total energy / hartree       =      -308.543077366580292
         Total SCF energy =   -307.412323178055
 CCSD total energy / hartree       =      -308.543080944976907
         Total SCF energy =   -307.412404769079
 CCSD total energy / hartree       =      -308.543081106543980
         Total SCF energy =   -307.412322060650
 CCSD total energy / hartree       =      -308.543079050407755
         Total SCF energy =   -307.412400960999
 CCSD total energy / hartree       =      -308.543078560375704
         Total SCF energy =   -307.412321839606
 CCSD total energy / hartree       =      -308.543079244175260
         Total SCF energy =   -307.412401613499
 CCSD total energy / hartree       =      -308.543078747676418
         Total SCF energy =   -307.412322167294
 CCSD total energy / hartree       =      -308.543079434441665
         Total SCF energy =   -307.412401717118
 CCSD total energy / hartree       =      -308.543078975926619
         Total SCF energy =   -307.412325603494
 CCSD total energy / hartree       =      -308.543081070006281
         Total SCF energy =   -307.412402311946
 CCSD total energy / hartree       =      -308.543080758524638
         Total SCF energy =   -307.412357126704
 CCSD total energy / hartree       =      -308.543099548913801
         Total SCF energy =   -307.412411674071
 CCSD total energy / hartree       =      -308.543099705525833
         Total SCF energy =   -307.412323399301
 CCSD total energy / hartree       =      -308.543080067533253
         Total SCF energy =   -307.412399651901
 CCSD total energy / hartree       =      -308.543077471374374
         Total SCF energy =   -307.412325294672
 CCSD total energy / hartree       =      -308.543080532278452
         Total SCF energy =   -307.412401966023
 CCSD total energy / hartree       =      -308.543080470844245
         Total SCF energy =   -307.412323479597
 CCSD total energy / hartree       =      -308.543079129361900
         Total SCF energy =   -307.412400385319
 CCSD total energy / hartree       =      -308.543079189475748
         Total SCF energy =   -307.412324220413
 CCSD total energy / hartree       =      -308.543078268372085
         Total SCF energy =   -307.412397450141
 CCSD total energy / hartree       =      -308.543077937002977
         Total SCF energy =   -307.412328527033
 CCSD total energy / hartree       =      -308.543081377726480
         Total SCF energy =   -307.412400483806
 CCSD total energy / hartree       =      -308.543081546818087
         Total SCF energy =   -307.412328004678
 CCSD total energy / hartree       =      -308.543078772401600
         Total SCF energy =   -307.412394770718
 CCSD total energy / hartree       =      -308.543078498794102
         Total SCF energy =   -307.412332600022
 CCSD total energy / hartree       =      -308.543079652468862
         Total SCF energy =   -307.412391441854
 CCSD total energy / hartree       =      -308.543078657205228
         Total SCF energy =   -307.412370127126
 CCSD total energy / hartree       =      -308.543101351505584
         Total SCF energy =   -307.412402153496
 CCSD total energy / hartree       =      -308.543101431223420
         Total SCF energy =   -307.412377109350
 CCSD total energy / hartree       =      -308.543096825282930
         Total SCF energy =   -307.412387940594
 CCSD total energy / hartree       =      -308.543098498187248
 Zero-Point correction to Energy  =   84.131 kcal/mol  (  0.134072 au)
 Thermal correction to Energy     =   87.017 kcal/mol  (  0.138671 au)
 Thermal correction to Enthalpy   =   87.609 kcal/mol  (  0.139615 au)
 Total Entropy                    =   68.326 cal/mol-K
   - Translational                =   39.819 cal/mol-K (mol. weight = 104.0626)
   - Rotational                   =   23.816 cal/mol-K (symmetry #  =        4)
   - Vibrational                  =    4.691 cal/mol-K
   - Translational                  =    2.979 cal/mol-K
   - Rotational                     =    2.979 cal/mol-K
   - Vibrational                    =   15.130 cal/mol-K
 P.Frequency       -0.00       -0.00       -0.00        0.00        0.00        0.00
 P.Frequency      588.89      627.25      635.13      653.82      668.98      797.14
 P.Frequency      803.70      814.60      828.02      830.88      835.59      897.22
 P.Frequency      901.12      911.23      925.62      978.03      980.91     1034.93
 P.Frequency     1088.01     1096.51     1100.19     1138.78     1147.41     1152.18
 P.Frequency     1157.54     1161.84     1174.10     1188.89     1240.53     1241.86
 P.Frequency     1242.37     1247.04     1266.66     1287.13     3115.78     3138.55
 P.Frequency     3151.23     3152.39     3154.97     3161.16     3169.24     3191.45
 Total times  cpu:  1181217.7s     wall:   666054.8s
