         Total DFT energy =     -309.188784572677
@ Step       Energy      Delta E   Gmax     Grms     Xrms     Xmax   Walltime
@ ---- ---------------- -------- -------- -------- -------- -------- --------
@    0    -309.18878457  0.0D+00  0.00798  0.00191  0.00000  0.00000     21.1
         Total DFT energy =     -309.189522131124
         Total DFT energy =   -309.189522131124
@    1    -309.18952213 -7.4D-04  0.00049  0.00010  0.01162  0.02483     37.0
         Total DFT energy =     -309.189528093382
         Total DFT energy =     -309.189529611005
@    2    -309.18952961 -7.5D-06  0.00038  0.00006  0.00134  0.00375     55.4
         Total DFT energy =     -309.189531611310

                       DFT Final Molecular Orbital Analysis
                       ------------------------------------

 Vector    1  Occ=2.000000D+00  E=-1.020315D+01  Symmetry=b2

 Vector   81  Occ=0.000000D+00  E= 8.957281D-01  Symmetry=a2

 Vector   82  Occ=0.000000D+00  E= 9.051256D-01  Symmetry=b1

 Vector   83  Occ=0.000000D+00  E= 9.168146D-01  Symmetry=a1

 Vector   84  Occ=0.000000D+00  E= 1.065643D+00  Symmetry=a1

 Vector   85  Occ=0.000000D+00  E= 1.133306D+00  Symmetry=b1

 Vector   86  Occ=0.000000D+00  E= 1.149753D+00  Symmetry=b2

 Vector   87  Occ=0.000000D+00  E= 1.275502D+00  Symmetry=b2

 Vector   88  Occ=0.000000D+00  E= 1.314657D+00  Symmetry=a2

 Vector   89  Occ=0.000000D+00  E= 1.363637D+00  Symmetry=a1

 Vector   90  Occ=0.000000D+00  E= 1.480382D+00  Symmetry=a2

 Vector   91  Occ=0.000000D+00  E= 1.494031D+00  Symmetry=b1

 Vector   92  Occ=0.000000D+00  E= 1.539023D+00  Symmetry=a1

 Vector   93  Occ=0.000000D+00  E= 1.551884D+00  Symmetry=b1

 Vector   94  Occ=0.000000D+00  E= 1.558539D+00  Symmetry=a2

 Vector   95  Occ=0.000000D+00  E= 1.560616D+00  Symmetry=b2

 Vector   96  Occ=0.000000D+00  E= 1.567168D+00  Symmetry=a1

 Vector   97  Occ=0.000000D+00  E= 1.598424D+00  Symmetry=b2

 Vector   98  Occ=0.000000D+00  E= 1.614569D+00  Symmetry=b1

 Vector   99  Occ=0.000000D+00  E= 1.661038D+00  Symmetry=b1

 Vector  100  Occ=0.000000D+00  E= 1.669239D+00  Symmetry=a1

 Vector  101  Occ=0.000000D+00  E= 1.700992D+00  Symmetry=a1

 Vector  102  Occ=0.000000D+00  E= 1.729065D+00  Symmetry=b2

 Vector  103  Occ=0.000000D+00  E= 1.743289D+00  Symmetry=b1

 Vector  104  Occ=0.000000D+00  E= 1.761443D+00  Symmetry=a1

 Vector  105  Occ=0.000000D+00  E= 1.775660D+00  Symmetry=b2

 Vector  106  Occ=0.000000D+00  E= 1.775721D+00  Symmetry=a2

 Vector  107  Occ=0.000000D+00  E= 1.861627D+00  Symmetry=a1

 Vector  108  Occ=0.000000D+00  E= 1.865108D+00  Symmetry=b1

 Vector  109  Occ=0.000000D+00  E= 1.867544D+00  Symmetry=b2

 Vector  110  Occ=0.000000D+00  E= 1.889881D+00  Symmetry=b1

 Vector  111  Occ=0.000000D+00  E= 1.899353D+00  Symmetry=a2

 Vector  112  Occ=0.000000D+00  E= 1.917777D+00  Symmetry=a1

 Vector  113  Occ=0.000000D+00  E= 1.945789D+00  Symmetry=b2

 Vector  114  Occ=0.000000D+00  E= 1.964967D+00  Symmetry=b2

 Vector  115  Occ=0.000000D+00  E= 1.974060D+00  Symmetry=a2

 Vector  116  Occ=0.000000D+00  E= 1.987704D+00  Symmetry=a1

 Vector  117  Occ=0.000000D+00  E= 2.026147D+00  Symmetry=a2

 Vector  118  Occ=0.000000D+00  E= 2.037873D+00  Symmetry=a1

 Vector  119  Occ=0.000000D+00  E= 2.048291D+00  Symmetry=b2

 Vector  120  Occ=0.000000D+00  E= 2.057122D+00  Symmetry=a2

 Vector  121  Occ=0.000000D+00  E= 2.063982D+00  Symmetry=b1

 Vector  122  Occ=0.000000D+00  E= 2.111096D+00  Symmetry=b2

 Vector  123  Occ=0.000000D+00  E= 2.115097D+00  Symmetry=a1

 Vector  124  Occ=0.000000D+00  E= 2.131375D+00  Symmetry=a2

 Vector  125  Occ=0.000000D+00  E= 2.164803D+00  Symmetry=b1

 Vector  126  Occ=0.000000D+00  E= 2.215234D+00  Symmetry=b1

 Vector  127  Occ=0.000000D+00  E= 2.215865D+00  Symmetry=b2

 Vector  128  Occ=0.000000D+00  E= 2.252877D+00  Symmetry=a1

 Vector  129  Occ=0.000000D+00  E= 2.271157D+00  Symmetry=a1

 Vector  130  Occ=0.000000D+00  E= 2.298905D+00  Symmetry=b2

 Vector  131  Occ=0.000000D+00  E= 2.301089D+00  Symmetry=a2

 Vector  132  Occ=0.000000D+00  E= 2.377603D+00  Symmetry=a1

 Vector  133  Occ=0.000000D+00  E= 2.388316D+00  Symmetry=b2

 Vector  134  Occ=0.000000D+00  E= 2.432136D+00  Symmetry=a2

 Vector  135  Occ=0.000000D+00  E= 2.483782D+00  Symmetry=b2

 Vector  136  Occ=0.000000D+00  E= 2.523298D+00  Symmetry=b1

 Vector  137  Occ=0.000000D+00  E= 2.531342D+00  Symmetry=a1

 Vector  138  Occ=0.000000D+00  E= 2.596721D+00  Symmetry=b2

 Vector  139  Occ=0.000000D+00  E= 2.626642D+00  Symmetry=a2

 Vector  140  Occ=0.000000D+00  E= 2.638033D+00  Symmetry=b2

 Vector  141  Occ=0.000000D+00  E= 2.757739D+00  Symmetry=a1

 Vector  142  Occ=0.000000D+00  E= 2.776232D+00  Symmetry=b1

 Vector  143  Occ=0.000000D+00  E= 2.779222D+00  Symmetry=a2

 Vector  144  Occ=0.000000D+00  E= 2.798134D+00  Symmetry=b2

 Vector  145  Occ=0.000000D+00  E= 2.862382D+00  Symmetry=b1

 Vector  146  Occ=0.000000D+00  E= 2.912818D+00  Symmetry=a1

 Vector  147  Occ=0.000000D+00  E= 2.948010D+00  Symmetry=b2

 Vector  148  Occ=0.000000D+00  E= 2.954363D+00  Symmetry=a2

 Vector  149  Occ=0.000000D+00  E= 3.035435D+00  Symmetry=a2

 Vector  150  Occ=0.000000D+00  E= 3.106896D+00  Symmetry=a1

 Vector  151  Occ=0.000000D+00  E= 3.151164D+00  Symmetry=b2

 Vector  152  Occ=0.000000D+00  E= 3.374408D+00  Symmetry=b2

 Vector  153  Occ=0.000000D+00  E= 5.041470D+00  Symmetry=a1

 Vector  154  Occ=0.000000D+00  E= 5.116753D+00  Symmetry=b1

 Vector  155  Occ=0.000000D+00  E= 5.183405D+00  Symmetry=a1

 Vector  156  Occ=0.000000D+00  E= 5.310359D+00  Symmetry=b2

 Vector  157  Occ=0.000000D+00  E= 5.339222D+00  Symmetry=b2

 Vector  158  Occ=0.000000D+00  E= 5.370955D+00  Symmetry=a2

 Vector  159  Occ=0.000000D+00  E= 5.469470D+00  Symmetry=a1

 Vector  160  Occ=0.000000D+00  E= 5.723687D+00  Symmetry=b2

         Total DFT energy =   -309.189531611310
@    3    -309.18953161 -2.0D-06  0.00013  0.00003  0.00033  0.00094     67.6
@    3    -309.18953161 -2.0D-06  0.00013  0.00003  0.00033  0.00094     67.6

 Output coordinates in angstroms (scale by  1.889725989 to convert to a.u.)

  No.       Tag          Charge          X              Y              Z
 ---- ---------------- ---------- -------------- -------------- --------------
    1 H                    1.0000     2.06134743    -1.28816821     0.01795364
    2 C                    6.0000     1.07169889    -0.81247371    -0.05702611
    3 H                    1.0000     2.06134743     1.28816821     0.01795364
    4 C                    6.0000     1.07169889     0.81247371    -0.05702611
    5 H                    1.0000     0.00000000    -1.62113834    -2.02866182
    6 C                    6.0000     0.00000000    -1.32918521    -0.97376583
    7 H                    1.0000     0.00000000     1.62113834    -2.02866182
    8 C                    6.0000     0.00000000     1.32918521    -0.97376583
    9 H                    1.0000     0.00000000    -1.44859324     1.95671255
   10 C                    6.0000     0.00000000    -0.77219231     1.09179127
   11 H                    1.0000     0.00000000     1.44859324     1.95671255
   12 C                    6.0000     0.00000000     0.77219231     1.09179127
   13 H                    1.0000    -2.06134743    -1.28816821     0.01795364
   14 C                    6.0000    -1.07169889    -0.81247371    -0.05702611
   15 H                    1.0000    -2.06134743     1.28816821     0.01795364
   16 C                    6.0000    -1.07169889     0.81247371    -0.05702611

 Total times  cpu:      121.9s     wall:       67.6s
