         Total DFT energy =     -309.191374370023
@ Step       Energy      Delta E   Gmax     Grms     Xrms     Xmax   Walltime
@ ---- ---------------- -------- -------- -------- -------- -------- --------
@    0    -309.19137437  0.0D+00  0.00805  0.00190  0.00000  0.00000     20.2
         Total DFT energy =     -309.192131847765
         Total DFT energy =   -309.192131847765
@    1    -309.19213185 -7.6D-04  0.00039  0.00011  0.01111  0.02626     34.5
         Total DFT energy =     -309.192138731233
         Total DFT energy =     -309.192140481027
@    2    -309.19214048 -8.6D-06  0.00033  0.00006  0.00185  0.00547     53.3
         Total DFT energy =     -309.192141806342

                    DFT Final Alpha Molecular Orbital Analysis
                    ------------------------------------------

 Vector    1  Occ=1.000000D+00  E=-1.020341D+01  Symmetry=b2

 Vector   81  Occ=0.000000D+00  E= 8.968062D-01  Symmetry=a2

 Vector   82  Occ=0.000000D+00  E= 9.100436D-01  Symmetry=b1

 Vector   83  Occ=0.000000D+00  E= 9.189820D-01  Symmetry=a1

 Vector   84  Occ=0.000000D+00  E= 1.067358D+00  Symmetry=a1

 Vector   85  Occ=0.000000D+00  E= 1.134319D+00  Symmetry=b1

 Vector   86  Occ=0.000000D+00  E= 1.152455D+00  Symmetry=b2

 Vector   87  Occ=0.000000D+00  E= 1.277021D+00  Symmetry=b2

 Vector   88  Occ=0.000000D+00  E= 1.323369D+00  Symmetry=a2

 Vector   89  Occ=0.000000D+00  E= 1.366402D+00  Symmetry=a1

 Vector   90  Occ=0.000000D+00  E= 1.482222D+00  Symmetry=a2

 Vector   91  Occ=0.000000D+00  E= 1.495877D+00  Symmetry=b1

 Vector   92  Occ=0.000000D+00  E= 1.540573D+00  Symmetry=a1

 Vector   93  Occ=0.000000D+00  E= 1.554557D+00  Symmetry=b1

 Vector   94  Occ=0.000000D+00  E= 1.559480D+00  Symmetry=a2

 Vector   95  Occ=0.000000D+00  E= 1.562666D+00  Symmetry=b2

 Vector   96  Occ=0.000000D+00  E= 1.571895D+00  Symmetry=a1

 Vector   97  Occ=0.000000D+00  E= 1.613247D+00  Symmetry=b2

 Vector   98  Occ=0.000000D+00  E= 1.616357D+00  Symmetry=b1

 Vector   99  Occ=0.000000D+00  E= 1.664883D+00  Symmetry=b1

 Vector  100  Occ=0.000000D+00  E= 1.676434D+00  Symmetry=a1

 Vector  101  Occ=0.000000D+00  E= 1.704270D+00  Symmetry=a1

 Vector  102  Occ=0.000000D+00  E= 1.730116D+00  Symmetry=b2

 Vector  103  Occ=0.000000D+00  E= 1.744807D+00  Symmetry=b1

 Vector  104  Occ=0.000000D+00  E= 1.763532D+00  Symmetry=a1

 Vector  105  Occ=0.000000D+00  E= 1.776862D+00  Symmetry=a2

 Vector  106  Occ=0.000000D+00  E= 1.784642D+00  Symmetry=b2

 Vector  107  Occ=0.000000D+00  E= 1.864085D+00  Symmetry=a1

 Vector  108  Occ=0.000000D+00  E= 1.872572D+00  Symmetry=b1

 Vector  109  Occ=0.000000D+00  E= 1.877328D+00  Symmetry=b2

 Vector  110  Occ=0.000000D+00  E= 1.890740D+00  Symmetry=b1

 Vector  111  Occ=0.000000D+00  E= 1.910056D+00  Symmetry=a2

 Vector  112  Occ=0.000000D+00  E= 1.920910D+00  Symmetry=a1

 Vector  113  Occ=0.000000D+00  E= 1.947789D+00  Symmetry=b2

 Vector  114  Occ=0.000000D+00  E= 1.969646D+00  Symmetry=b2

 Vector  115  Occ=0.000000D+00  E= 1.977704D+00  Symmetry=a2

 Vector  116  Occ=0.000000D+00  E= 1.990235D+00  Symmetry=a1

 Vector  117  Occ=0.000000D+00  E= 2.028934D+00  Symmetry=a2

 Vector  118  Occ=0.000000D+00  E= 2.048414D+00  Symmetry=a1

 Vector  119  Occ=0.000000D+00  E= 2.058350D+00  Symmetry=b2

 Vector  120  Occ=0.000000D+00  E= 2.058416D+00  Symmetry=a2

 Vector  121  Occ=0.000000D+00  E= 2.065275D+00  Symmetry=b1

 Vector  122  Occ=0.000000D+00  E= 2.118668D+00  Symmetry=b2

 Vector  123  Occ=0.000000D+00  E= 2.120822D+00  Symmetry=a1

 Vector  124  Occ=0.000000D+00  E= 2.133577D+00  Symmetry=a2

 Vector  125  Occ=0.000000D+00  E= 2.167243D+00  Symmetry=b1

 Vector  126  Occ=0.000000D+00  E= 2.220214D+00  Symmetry=b2

 Vector  127  Occ=0.000000D+00  E= 2.230023D+00  Symmetry=b1

 Vector  128  Occ=0.000000D+00  E= 2.265044D+00  Symmetry=a1

 Vector  129  Occ=0.000000D+00  E= 2.284987D+00  Symmetry=a1

 Vector  130  Occ=0.000000D+00  E= 2.303366D+00  Symmetry=a2

 Vector  131  Occ=0.000000D+00  E= 2.304549D+00  Symmetry=b2

 Vector  132  Occ=0.000000D+00  E= 2.383419D+00  Symmetry=a1

 Vector  133  Occ=0.000000D+00  E= 2.390216D+00  Symmetry=b2

 Vector  134  Occ=0.000000D+00  E= 2.439188D+00  Symmetry=a2

 Vector  135  Occ=0.000000D+00  E= 2.489894D+00  Symmetry=b2

 Vector  136  Occ=0.000000D+00  E= 2.525469D+00  Symmetry=b1

 Vector  137  Occ=0.000000D+00  E= 2.539189D+00  Symmetry=a1

 Vector  138  Occ=0.000000D+00  E= 2.602424D+00  Symmetry=b2

 Vector  139  Occ=0.000000D+00  E= 2.629793D+00  Symmetry=a2

 Vector  140  Occ=0.000000D+00  E= 2.640606D+00  Symmetry=b2

 Vector  141  Occ=0.000000D+00  E= 2.758503D+00  Symmetry=a1

 Vector  142  Occ=0.000000D+00  E= 2.777370D+00  Symmetry=b1

 Vector  143  Occ=0.000000D+00  E= 2.781464D+00  Symmetry=a2

 Vector  144  Occ=0.000000D+00  E= 2.801259D+00  Symmetry=b2

 Vector  145  Occ=0.000000D+00  E= 2.865314D+00  Symmetry=b1

 Vector  146  Occ=0.000000D+00  E= 2.916647D+00  Symmetry=a1

 Vector  147  Occ=0.000000D+00  E= 2.951571D+00  Symmetry=b2

 Vector  148  Occ=0.000000D+00  E= 2.956899D+00  Symmetry=a2

 Vector  149  Occ=0.000000D+00  E= 3.037172D+00  Symmetry=a2

 Vector  150  Occ=0.000000D+00  E= 3.111484D+00  Symmetry=a1

 Vector  151  Occ=0.000000D+00  E= 3.155584D+00  Symmetry=b2

 Vector  152  Occ=0.000000D+00  E= 3.376934D+00  Symmetry=b2

 Vector  153  Occ=0.000000D+00  E= 5.048515D+00  Symmetry=a1

 Vector  154  Occ=0.000000D+00  E= 5.118064D+00  Symmetry=b1

 Vector  155  Occ=0.000000D+00  E= 5.187473D+00  Symmetry=a1

 Vector  156  Occ=0.000000D+00  E= 5.311148D+00  Symmetry=b2

 Vector  157  Occ=0.000000D+00  E= 5.354989D+00  Symmetry=b2

 Vector  158  Occ=0.000000D+00  E= 5.372104D+00  Symmetry=a2

 Vector  159  Occ=0.000000D+00  E= 5.477379D+00  Symmetry=a1

 Vector  160  Occ=0.000000D+00  E= 5.725320D+00  Symmetry=b2

     Multipole analysis of the density
     ---------------------------------

     L   x y z        total         alpha         beta         nuclear
     -   - - -        -----         -----         ----         -------
     0   0 0 0     -0.000000    -29.000000    -27.000000     56.000000

     1   1 0 0      0.000000      0.000000      0.000000      0.000000
     1   0 1 0     -0.000000      0.000000     -0.000000     -0.000000
     1   0 0 1      0.061020      1.553827     -1.440216     -0.052591

     2   2 0 0    -34.298721    -98.292334    -95.185322    159.178936
     2   1 1 0      0.000000      0.000000      0.000000      0.000000
     2   1 0 1      0.000000      0.000000      0.000000      0.000000
     2   0 2 0    -36.858484   -135.022689   -117.052400    215.216605
     2   0 1 1     -0.000000     -0.000000     -0.000000      0.000000

         Total DFT energy =   -309.192141806342
@    3    -309.19214181 -1.3D-06  0.00013  0.00002  0.00027  0.00052     64.3
@    3    -309.19214181 -1.3D-06  0.00013  0.00002  0.00027  0.00052     64.3

 Output coordinates in angstroms (scale by  1.889725989 to convert to a.u.)

  No.       Tag          Charge          X              Y              Z
 ---- ---------------- ---------- -------------- -------------- --------------
    1 H                    1.0000     2.06144638    -1.28839843     0.01859442
    2 C                    6.0000     1.07192202    -0.81236179    -0.05678514
    3 H                    1.0000     2.06144638     1.28839843     0.01859442
    4 C                    6.0000     1.07192202     0.81236179    -0.05678514
    5 H                    1.0000     0.00000000    -1.62049821    -2.02997493
    6 C                    6.0000     0.00000000    -1.32877116    -0.97465922
    7 H                    1.0000     0.00000000     1.62049821    -2.02997493
    8 C                    6.0000     0.00000000     1.32877116    -0.97465922
    9 H                    1.0000     0.00000000    -1.44828692     1.95708653
   10 C                    6.0000     0.00000000    -0.77211080     1.09186028
   11 H                    1.0000     0.00000000     1.44828692     1.95708653
   12 C                    6.0000     0.00000000     0.77211080     1.09186028
   13 H                    1.0000    -2.06144638    -1.28839843     0.01859442
   14 C                    6.0000    -1.07192202    -0.81236179    -0.05678514
   15 H                    1.0000    -2.06144638     1.28839843     0.01859442
   16 C                    6.0000    -1.07192202     0.81236179    -0.05678514

 Total times  cpu:      120.8s     wall:       64.3s
