         Total SCF energy =   -307.449051906753
          Total MP2 energy          -308.697549854619
@ Step       Energy      Delta E   Gmax     Grms     Xrms     Xmax   Walltime
@ ---- ---------------- -------- -------- -------- -------- -------- --------
@    0    -308.69754985  0.0D+00  0.01075  0.00318  0.00000  0.00000   2024.0
         Total SCF energy =   -307.452910220049
          Total MP2 energy          -308.700009678439
         Total SCF energy =   -307.453088914951
          Total MP2 energy          -308.700031160880
@    1    -308.70003116 -2.5D-03  0.00182  0.00044  0.02504  0.05685   4824.2
         Total SCF energy =   -307.452929918058
          Total MP2 energy          -308.700098630188
         Total SCF energy =   -307.452854256511
          Total MP2 energy          -308.700103559959
@    2    -308.70010356 -7.2D-05  0.00050  0.00010  0.00380  0.00986   7537.0
         Total SCF energy =   -307.452819570676
          Total MP2 energy          -308.700113230782
         Total SCF energy =   -307.452752541878
          Total MP2 energy          -308.700119047125
@    3    -308.70011905 -1.5D-05  0.00034  0.00006  0.00273  0.00769  10254.6
         Total SCF energy =   -307.452746369513
          Total MP2 energy          -308.700123647462
         Total SCF energy =   -307.452721955668
          Total MP2 energy          -308.700129218244
@    4    -308.70012922 -1.0D-05  0.00048  0.00009  0.00296  0.00923  12920.2
         Total SCF energy =   -307.452719824257
          Total MP2 energy          -308.700132863981
         Total SCF energy =   -307.452714868292
          Total MP2 energy          -308.700134275614
@    5    -308.70013428 -5.1D-06  0.00024  0.00004  0.00247  0.00604  15566.3
         Total SCF energy =   -307.452711328529
          Total MP2 energy          -308.700135974975
         Total SCF energy =   -307.452701957734
          Total MP2 energy          -308.700137328452
@    6    -308.70013733 -3.1D-06  0.00026  0.00004  0.00181  0.00675  18220.4
         Total SCF energy =   -307.452695778060
          Total MP2 energy          -308.700139103759
         Total SCF energy =   -307.452675225769
          Total MP2 energy          -308.700142858355
@    7    -308.70014286 -5.5D-06  0.00016  0.00003  0.00321  0.01213  20885.4
         Total SCF energy =   -307.452649117115
          Total MP2 energy          -308.700147167458
         Total SCF energy =   -307.452617501459
          Total MP2 energy          -308.700148842281
@    8    -308.70014884 -6.0D-06  0.00043  0.00006  0.00796  0.03024  23595.9
         Total SCF energy =   -307.452603103124
          Total MP2 energy          -308.700152875370
         Total SCF energy =   -307.452553310409
          Total MP2 energy          -308.700158969023
@    9    -308.70015897 -1.0D-05  0.00011  0.00003  0.00861  0.03398  26302.7
         Total SCF energy =   -307.452537612386
          Total MP2 energy          -308.700160832752
         Total SCF energy =   -307.452520475295
          Total MP2 energy          -308.700161487865
@   10    -308.70016149 -2.5D-06  0.00015  0.00002  0.00464  0.01824  28964.1
         Total SCF energy =   -307.452517716585
          Total MP2 energy          -308.700162196778
         Total SCF energy =   -307.452513429465
          Total MP2 energy          -308.700162716134
@   11    -308.70016272 -1.2D-06  0.00008  0.00001  0.00159  0.00552  31596.8
         Total SCF energy =   -307.452513648909
          Total MP2 energy          -308.700162849908
         Total SCF energy =   -307.452513737265

 Vector   21  Occ=1.000000D+00  E=-5.783714D-01  Symmetry=b1

 Vector   22  Occ=1.000000D+00  E=-5.275094D-01  Symmetry=b1

 Vector   23  Occ=1.000000D+00  E=-4.507552D-01  Symmetry=a2

 Vector   24  Occ=1.000000D+00  E=-4.476959D-01  Symmetry=b2

 Vector   25  Occ=1.000000D+00  E=-4.471726D-01  Symmetry=b1

 Vector   26  Occ=1.000000D+00  E=-4.051380D-01  Symmetry=a1

 Vector   27  Occ=1.000000D+00  E=-3.806609D-01  Symmetry=a2

 Vector   28  Occ=1.000000D+00  E=-3.239958D-01  Symmetry=b2

 Vector   29  Occ=1.000000D+00  E=-3.091747D-01  Symmetry=a1

 Vector   30  Occ=0.000000D+00  E= 1.415756D-01  Symmetry=a1

 Vector   31  Occ=0.000000D+00  E= 1.638070D-01  Symmetry=b1

 Vector   32  Occ=0.000000D+00  E= 1.677059D-01  Symmetry=b2

 Vector   33  Occ=0.000000D+00  E= 1.693351D-01  Symmetry=a1

 Vector   34  Occ=0.000000D+00  E= 1.968523D-01  Symmetry=b2

 Vector   35  Occ=0.000000D+00  E= 1.983451D-01  Symmetry=a2

 Vector   36  Occ=0.000000D+00  E= 2.004717D-01  Symmetry=a1

 Vector   37  Occ=0.000000D+00  E= 2.278162D-01  Symmetry=b2

 Vector   38  Occ=0.000000D+00  E= 2.333373D-01  Symmetry=a1

 Vector   39  Occ=0.000000D+00  E= 2.435190D-01  Symmetry=b1

 Vector   40  Occ=0.000000D+00  E= 2.758842D-01  Symmetry=b2

 Vector   41  Occ=0.000000D+00  E= 3.422967D-01  Symmetry=a2

 Vector   42  Occ=0.000000D+00  E= 3.468619D-01  Symmetry=b2

 Vector   43  Occ=0.000000D+00  E= 3.475060D-01  Symmetry=b1

 Vector   44  Occ=0.000000D+00  E= 3.524238D-01  Symmetry=a2

 Vector   45  Occ=0.000000D+00  E= 3.529895D-01  Symmetry=a1

 Vector   46  Occ=0.000000D+00  E= 3.628630D-01  Symmetry=a1

 Vector   47  Occ=0.000000D+00  E= 3.843489D-01  Symmetry=b1

 Vector   48  Occ=0.000000D+00  E= 4.043030D-01  Symmetry=a1

 Vector   49  Occ=0.000000D+00  E= 4.180263D-01  Symmetry=b1

 Vector   50  Occ=0.000000D+00  E= 4.212328D-01  Symmetry=b2

 Vector   51  Occ=0.000000D+00  E= 4.233901D-01  Symmetry=a2

 Vector   52  Occ=0.000000D+00  E= 4.386616D-01  Symmetry=a1

 Vector   53  Occ=0.000000D+00  E= 4.493017D-01  Symmetry=b2

 Vector   54  Occ=0.000000D+00  E= 5.013635D-01  Symmetry=a2

 Vector    9  Occ=1.000000D+00  E=-1.215382D+00  Symmetry=a1

 Vector   10  Occ=1.000000D+00  E=-1.025195D+00  Symmetry=b2

 Vector   11  Occ=1.000000D+00  E=-9.643284D-01  Symmetry=b1

 Vector   12  Occ=1.000000D+00  E=-9.078803D-01  Symmetry=a1

 Vector   13  Occ=1.000000D+00  E=-7.888049D-01  Symmetry=a2

 Vector   14  Occ=1.000000D+00  E=-7.656091D-01  Symmetry=b2

 Vector   15  Occ=1.000000D+00  E=-7.460403D-01  Symmetry=a1

 Vector   16  Occ=1.000000D+00  E=-7.068088D-01  Symmetry=a1

 Vector   17  Occ=1.000000D+00  E=-6.378722D-01  Symmetry=b2

 Vector   18  Occ=1.000000D+00  E=-6.079618D-01  Symmetry=b2

 Vector   19  Occ=1.000000D+00  E=-5.857457D-01  Symmetry=a1

 Vector   20  Occ=1.000000D+00  E=-5.723700D-01  Symmetry=b1

 Vector   21  Occ=1.000000D+00  E=-5.197547D-01  Symmetry=b1

 Vector   22  Occ=1.000000D+00  E=-5.159917D-01  Symmetry=a1

 Vector   23  Occ=1.000000D+00  E=-4.357164D-01  Symmetry=a2

 Vector   24  Occ=1.000000D+00  E=-4.345131D-01  Symmetry=b1

 Vector   25  Occ=1.000000D+00  E=-4.109151D-01  Symmetry=b2

 Vector   26  Occ=1.000000D+00  E=-3.960693D-01  Symmetry=a1

 Vector   27  Occ=1.000000D+00  E=-3.747351D-01  Symmetry=a2

 Vector   28  Occ=0.000000D+00  E= 1.326945D-01  Symmetry=b2

 Vector   29  Occ=0.000000D+00  E= 1.334916D-01  Symmetry=a1

 Vector   30  Occ=0.000000D+00  E= 1.453215D-01  Symmetry=a1

 Vector   31  Occ=0.000000D+00  E= 1.652752D-01  Symmetry=b1

 Vector   32  Occ=0.000000D+00  E= 1.775366D-01  Symmetry=b2

 Vector   33  Occ=0.000000D+00  E= 1.816066D-01  Symmetry=a1

 Vector   34  Occ=0.000000D+00  E= 1.992877D-01  Symmetry=a2

 Vector   35  Occ=0.000000D+00  E= 2.058083D-01  Symmetry=a1

 Vector   36  Occ=0.000000D+00  E= 2.061618D-01  Symmetry=b2

 Vector   37  Occ=0.000000D+00  E= 2.298639D-01  Symmetry=b2

 Vector   38  Occ=0.000000D+00  E= 2.398712D-01  Symmetry=a1

 Vector   39  Occ=0.000000D+00  E= 2.457839D-01  Symmetry=b1

 Vector   40  Occ=0.000000D+00  E= 3.177820D-01  Symmetry=b2

 Vector   41  Occ=0.000000D+00  E= 3.447715D-01  Symmetry=a2

 Vector   42  Occ=0.000000D+00  E= 3.539536D-01  Symmetry=b1

 Vector   43  Occ=0.000000D+00  E= 3.606015D-01  Symmetry=a2

 Vector   44  Occ=0.000000D+00  E= 3.636666D-01  Symmetry=b2

 Vector   45  Occ=0.000000D+00  E= 3.700531D-01  Symmetry=a1

 Vector   46  Occ=0.000000D+00  E= 3.880516D-01  Symmetry=a1

 Vector   47  Occ=0.000000D+00  E= 3.882762D-01  Symmetry=b1

 Vector   48  Occ=0.000000D+00  E= 4.129387D-01  Symmetry=a1

 Vector   49  Occ=0.000000D+00  E= 4.212764D-01  Symmetry=b1

 Vector   50  Occ=0.000000D+00  E= 4.241398D-01  Symmetry=a2

 Vector   51  Occ=0.000000D+00  E= 4.369786D-01  Symmetry=b2

 Vector   52  Occ=0.000000D+00  E= 4.699784D-01  Symmetry=a1

 Vector   53  Occ=0.000000D+00  E= 4.727327D-01  Symmetry=b2

 Vector   54  Occ=0.000000D+00  E= 5.099261D-01  Symmetry=a2

       Multipole analysis of the density wrt the origin
       ------------------------------------------------

     L   x y z        total         alpha         beta         nuclear
     -   - - -        -----         -----         ----         -------
     0   0 0 0     -0.000000    -29.000000    -27.000000     56.000000

     1   1 0 0      0.000000      0.000000      0.000000     -0.000000
     1   0 1 0     -0.000000      0.000000     -0.000000      0.000000
     1   0 0 1      0.354914      1.721101     -2.121545      0.755358

     2   2 0 0    -34.192541    -96.844919    -95.531138    158.183516
     2   1 1 0      0.000000     -0.000000      0.000000     -0.000000
     2   1 0 1     -0.000000     -0.000000     -0.000000      0.000000
     2   0 2 0    -34.041966   -139.860373   -127.132231    232.950638
     2   0 1 1      0.000000      0.000000      0.000000     -0.000000

          Total MP2 energy          -308.700162886383
@   12    -308.70016289 -1.7D-07  0.00001  0.00000  0.00030  0.00078  34028.4
@   12    -308.70016289 -1.7D-07  0.00001  0.00000  0.00030  0.00078  34028.4

 Output coordinates in angstroms (scale by  1.889725989 to convert to a.u.)

  No.       Tag          Charge          X              Y              Z
 ---- ---------------- ---------- -------------- -------------- --------------
    1 H                    1.0000     2.04668595     1.26682437    -0.00033635
    2 C                    6.0000     1.07121833     0.79654218    -0.07627357
    3 H                    1.0000     2.04668595    -1.26682437    -0.00033635
    4 C                    6.0000     1.07121833    -0.79654218    -0.07627357
    5 H                    1.0000     0.00000000    -2.29879928    -1.46906735
    6 C                    6.0000     0.00000000    -1.34093548    -0.97119055
    7 H                    1.0000     0.00000000     2.29879928    -1.46906735
    8 C                    6.0000     0.00000000     1.34093548    -0.97119055
    9 H                    1.0000     0.00000000    -1.46145538     1.92117747
   10 C                    6.0000     0.00000000    -0.77287309     1.08180798
   11 H                    1.0000     0.00000000     1.46145538     1.92117747
   12 C                    6.0000     0.00000000     0.77287309     1.08180798
   13 H                    1.0000    -2.04668595     1.26682437    -0.00033635
   14 C                    6.0000    -1.07121833     0.79654218    -0.07627357
   15 H                    1.0000    -2.04668595    -1.26682437    -0.00033635
   16 C                    6.0000    -1.07121833    -0.79654218    -0.07627357

 Total times  cpu:    44496.5s     wall:    34028.5s
