         Total SCF energy =   -307.494077162014

 Vector   29  Occ=0.000000D+00  E= 1.581263D-01  Symmetry=a1g

 Vector   30  Occ=0.000000D+00  E= 1.632917D-01  Symmetry=t1u

 Vector   31  Occ=0.000000D+00  E= 1.632917D-01  Symmetry=t1u

 Vector   32  Occ=0.000000D+00  E= 1.632917D-01  Symmetry=t1u

 Vector   33  Occ=0.000000D+00  E= 2.023807D-01  Symmetry=t2g

 Vector   34  Occ=0.000000D+00  E= 2.023807D-01  Symmetry=t2g

 Vector   35  Occ=0.000000D+00  E= 2.023807D-01  Symmetry=t2g

 Vector   36  Occ=0.000000D+00  E= 2.228652D-01  Symmetry=t1u

 Vector   37  Occ=0.000000D+00  E= 2.228652D-01  Symmetry=t1u

 Vector   38  Occ=0.000000D+00  E= 2.228652D-01  Symmetry=t1u

 Vector   39  Occ=0.000000D+00  E= 2.308414D-01  Symmetry=a2u

 Vector   40  Occ=0.000000D+00  E= 2.960762D-01  Symmetry=eg

 Vector   41  Occ=0.000000D+00  E= 2.960762D-01  Symmetry=eg

 Vector   42  Occ=0.000000D+00  E= 3.183174D-01  Symmetry=t2g

 Vector   43  Occ=0.000000D+00  E= 3.183174D-01  Symmetry=t2g

 Vector   44  Occ=0.000000D+00  E= 3.183174D-01  Symmetry=t2g

 Vector   45  Occ=0.000000D+00  E= 3.374430D-01  Symmetry=t1g

 Vector   46  Occ=0.000000D+00  E= 3.374430D-01  Symmetry=t1g

 Vector   47  Occ=0.000000D+00  E= 3.374430D-01  Symmetry=t1g

 Vector   48  Occ=0.000000D+00  E= 3.472940D-01  Symmetry=a1g

 Vector   49  Occ=0.000000D+00  E= 3.661770D-01  Symmetry=t2u

 Vector   50  Occ=0.000000D+00  E= 3.661770D-01  Symmetry=t2u

 Vector   51  Occ=0.000000D+00  E= 3.661770D-01  Symmetry=t2u

 Vector   52  Occ=0.000000D+00  E= 4.334508D-01  Symmetry=t1u

 Vector   53  Occ=0.000000D+00  E= 4.334508D-01  Symmetry=t1u

 Vector   54  Occ=0.000000D+00  E= 4.334508D-01  Symmetry=t1u

 Vector   55  Occ=0.000000D+00  E= 4.590730D-01  Symmetry=eu

 Vector   56  Occ=0.000000D+00  E= 4.590730D-01  Symmetry=eu

 Vector   57  Occ=0.000000D+00  E= 4.810327D-01  Symmetry=a1g

 Vector   58  Occ=0.000000D+00  E= 5.489561D-01  Symmetry=t1u

@ Step       Energy      Delta E   Gmax     Grms     Xrms     Xmax   Walltime
@ ---- ---------------- -------- -------- -------- -------- -------- --------
@    0    -307.49407716  0.0D+00  0.00007  0.00002  0.00000  0.00000    254.2
         Total SCF energy =   -307.494077244213

 Vector    9  Occ=2.000000D+00  E=-1.251654D+00  Symmetry=a1g

 Vector   10  Occ=2.000000D+00  E=-9.820716D-01  Symmetry=t1u

 Vector   11  Occ=2.000000D+00  E=-9.820716D-01  Symmetry=t1u

 Vector   12  Occ=2.000000D+00  E=-9.820716D-01  Symmetry=t1u

 Vector   13  Occ=2.000000D+00  E=-7.690112D-01  Symmetry=t2g

 Vector   14  Occ=2.000000D+00  E=-7.690112D-01  Symmetry=t2g

 Vector   15  Occ=2.000000D+00  E=-7.690112D-01  Symmetry=t2g

 Vector   16  Occ=2.000000D+00  E=-7.147325D-01  Symmetry=a1g

 Vector   17  Occ=2.000000D+00  E=-6.418553D-01  Symmetry=a2u

 Vector   18  Occ=2.000000D+00  E=-5.836939D-01  Symmetry=eg

 Vector   19  Occ=2.000000D+00  E=-5.836939D-01  Symmetry=eg

 Vector   20  Occ=2.000000D+00  E=-5.827432D-01  Symmetry=t1u

 Vector   21  Occ=2.000000D+00  E=-5.827432D-01  Symmetry=t1u

 Vector   22  Occ=2.000000D+00  E=-5.827432D-01  Symmetry=t1u

 Vector   23  Occ=2.000000D+00  E=-3.917037D-01  Symmetry=t2u

 Vector   24  Occ=2.000000D+00  E=-3.917037D-01  Symmetry=t2u

 Vector   25  Occ=2.000000D+00  E=-3.917037D-01  Symmetry=t2u

 Vector   26  Occ=2.000000D+00  E=-3.829622D-01  Symmetry=t2g

 Vector   27  Occ=2.000000D+00  E=-3.829622D-01  Symmetry=t2g

 Vector   28  Occ=2.000000D+00  E=-3.829622D-01  Symmetry=t2g

 Vector   29  Occ=0.000000D+00  E= 1.581484D-01  Symmetry=a1g

 Vector   30  Occ=0.000000D+00  E= 1.632886D-01  Symmetry=t1u

 Vector   31  Occ=0.000000D+00  E= 1.632886D-01  Symmetry=t1u

 Vector   32  Occ=0.000000D+00  E= 1.632886D-01  Symmetry=t1u

 Vector   33  Occ=0.000000D+00  E= 2.023827D-01  Symmetry=t2g

 Vector   34  Occ=0.000000D+00  E= 2.023827D-01  Symmetry=t2g

 Vector   35  Occ=0.000000D+00  E= 2.023827D-01  Symmetry=t2g

 Vector   36  Occ=0.000000D+00  E= 2.228754D-01  Symmetry=t1u

 Vector   37  Occ=0.000000D+00  E= 2.228754D-01  Symmetry=t1u

 Vector   38  Occ=0.000000D+00  E= 2.228754D-01  Symmetry=t1u

 Vector   39  Occ=0.000000D+00  E= 2.308486D-01  Symmetry=a2u

 Vector   40  Occ=0.000000D+00  E= 2.960855D-01  Symmetry=eg

 Vector   41  Occ=0.000000D+00  E= 2.960855D-01  Symmetry=eg

 Vector   42  Occ=0.000000D+00  E= 3.183179D-01  Symmetry=t2g

 Vector   43  Occ=0.000000D+00  E= 3.183179D-01  Symmetry=t2g

 Vector   44  Occ=0.000000D+00  E= 3.183179D-01  Symmetry=t2g

 Vector   45  Occ=0.000000D+00  E= 3.374310D-01  Symmetry=t1g

 Vector   46  Occ=0.000000D+00  E= 3.374310D-01  Symmetry=t1g

 Vector   47  Occ=0.000000D+00  E= 3.374310D-01  Symmetry=t1g

 Vector   48  Occ=0.000000D+00  E= 3.472907D-01  Symmetry=a1g

 Vector   49  Occ=0.000000D+00  E= 3.661831D-01  Symmetry=t2u

 Vector   50  Occ=0.000000D+00  E= 3.661831D-01  Symmetry=t2u

 Vector   51  Occ=0.000000D+00  E= 3.661831D-01  Symmetry=t2u

 Vector   52  Occ=0.000000D+00  E= 4.334454D-01  Symmetry=t1u

 Vector   53  Occ=0.000000D+00  E= 4.334454D-01  Symmetry=t1u

 Vector   54  Occ=0.000000D+00  E= 4.334454D-01  Symmetry=t1u

 Vector   55  Occ=0.000000D+00  E= 4.590617D-01  Symmetry=eu

 Vector   56  Occ=0.000000D+00  E= 4.590617D-01  Symmetry=eu

 Vector   57  Occ=0.000000D+00  E= 4.810739D-01  Symmetry=a1g

 Vector   58  Occ=0.000000D+00  E= 5.489432D-01  Symmetry=t1u

       Multipole analysis of the density wrt the origin
       ------------------------------------------------

     L   x y z        total         open         nuclear
     -   - - -        -----         ----         -------
     0   0 0 0     -0.000000      0.000000     56.000000

     1   1 0 0     -0.000000      0.000000      0.000000
     1   0 1 0      0.000000      0.000000      0.000000
     1   0 0 1     -0.000000      0.000000      0.000000

     2   2 0 0    -34.887255      0.000000    160.048353
     2   1 1 0      0.000000      0.000000      0.000000
     2   1 0 1     -0.000000      0.000000      0.000000
     2   0 2 0    -34.887255      0.000000    160.048353
     2   0 1 1      0.000000      0.000000      0.000000

         Total SCF energy =   -307.494077244213
@    1    -307.49407724 -8.2D-08  0.00001  0.00000  0.00006  0.00007    437.5
@    1    -307.49407724 -8.2D-08  0.00001  0.00000  0.00006  0.00007    437.5

 Output coordinates in angstroms (scale by  1.889725989 to convert to a.u.)

  No.       Tag          Charge          X              Y              Z
 ---- ---------------- ---------- -------------- -------------- --------------
    1 H                    1.0000     1.40135306     1.40135306     1.40135306
    2 H                    1.0000    -1.40135306    -1.40135306     1.40135306
    3 H                    1.0000    -1.40135306     1.40135306    -1.40135306
    4 H                    1.0000     1.40135306    -1.40135306    -1.40135306
    5 H                    1.0000     1.40135306     1.40135306    -1.40135306
    6 H                    1.0000    -1.40135306    -1.40135306    -1.40135306
    7 H                    1.0000     1.40135306    -1.40135306     1.40135306
    8 H                    1.0000    -1.40135306     1.40135306     1.40135306
    9 C                    6.0000     0.77872474     0.77872474     0.77872474
   10 C                    6.0000    -0.77872474    -0.77872474     0.77872474
   11 C                    6.0000    -0.77872474     0.77872474    -0.77872474
   12 C                    6.0000     0.77872474    -0.77872474    -0.77872474
   13 C                    6.0000     0.77872474     0.77872474    -0.77872474
   14 C                    6.0000    -0.77872474    -0.77872474    -0.77872474
   15 C                    6.0000     0.77872474    -0.77872474     0.77872474
   16 C                    6.0000    -0.77872474     0.77872474     0.77872474

 Total times  cpu:      283.8s     wall:      437.8s
