                         Program Version 3.0.3 - RELEASE   -
|  1> # ================================================================
|  2> # Orca input file for cubane B3LYP/def2-QZVP geometry optimization
|  3> # ================================================================
|  4> ! DFT B3LYP def2-QZVP TightSCF TightOPT UseSym
|  5> ! PAL4
|  6>
|  7> * xyz 0 3
|  8>   H                     2.04751540    -1.28305698     0.01402688
|  9>   C                     1.07000028    -0.81258731    -0.05743553
| 10>   H                     2.04751540     1.28305698     0.01402688
| 11>   C                     1.07000028     0.81258731    -0.05743553
| 12>   H                     0.00000000    -1.61020134    -2.01435917
| 13>   C                     0.00000000    -1.32343256    -0.97118519
| 14>   H                     0.00000000     1.61020134    -2.01435917
| 15>   C                     0.00000000     1.32343256    -0.97118519
| 16>   H                     0.00000000    -1.43834592     1.94754313
| 17>   C                     0.00000000    -0.77028579     1.09274975
| 18>   H                     0.00000000     1.43834592     1.94754313
| 19>   C                     0.00000000     0.77028579     1.09274975
| 20>   H                    -2.04751540    -1.28305698     0.01402688
| 21>   C                    -1.07000028    -0.81258731    -0.05743553
| 22>   H                    -2.04751540     1.28305698     0.01402688
| 23>   C                    -1.07000028     0.81258731    -0.05743553
| 24> *
| 25>
| 26>                          ****END OF INPUT****
 Total Charge           Charge          ....    0
 Multiplicity           Mult            ....    3
 Number of Electrons    NEL             ....   56
FINAL SINGLE POINT ENERGY      -309.318346158922
FINAL SINGLE POINT ENERGY      -309.318347795131
FINAL SINGLE POINT ENERGY      -309.318347735858
                    ***********************HURRAY********************

CARTESIAN COORDINATES (ANGSTROEM)
---------------------------------
  H      2.048664    1.282389   -0.012971
  C      1.070450    0.812677    0.058683
  H      2.048664   -1.282389   -0.012971
  C      1.070450   -0.812677    0.058683
  H      0.000000    1.615129    2.014496
  C      0.000000    1.324785    0.972137
  H     -0.000000   -1.615129    2.014496
  C     -0.000000   -1.324785    0.972137
  H     -0.000000    1.438812   -1.947435
  C     -0.000000    0.770413   -1.092205
  H      0.000000   -1.438812   -1.947435
  C      0.000000   -0.770413   -1.092204
  H     -2.048664    1.282389   -0.012971
  C     -1.070450    0.812677    0.058683
  H     -2.048664   -1.282389   -0.012971
  C     -1.070450   -0.812677    0.058683

 Multiplicity           Mult            ....    3
 Number of Electrons    NEL             ....   56
 Basis Dimension        Dim             ....  696

ORBITAL ENERGIES
----------------
                 SPIN UP ORBITALS
  NO   OCC          E(Eh)            E(eV)    Irrep
   0   1.0000     -10.181389      -277.0497    1-A1
   1   1.0000     -10.181372      -277.0492    1-B1
   2   1.0000     -10.181258      -277.0461    1-B2
   3   1.0000     -10.181238      -277.0456    1-A2
   4   1.0000     -10.178767      -276.9783    2-B2
   5   1.0000     -10.178767      -276.9783    2-A1
   6   1.0000     -10.176090      -276.9055    3-A1
   7   1.0000     -10.175880      -276.8998    3-B2
   8   1.0000      -0.928377       -25.2624    4-A1
   9   1.0000      -0.784884       -21.3578    4-B2
  10   1.0000      -0.712958       -19.4006    2-B1
  11   1.0000      -0.696693       -18.9580    5-A1
  12   1.0000      -0.585238       -15.9251    5-B2
  13   1.0000      -0.578273       -15.7356    2-A2
  14   1.0000      -0.559080       -15.2134    6-A1
  15   1.0000      -0.529669       -14.4130    7-A1
  16   1.0000      -0.477181       -12.9848    6-B2
  17   1.0000      -0.466954       -12.7065    8-A1
  18   1.0000      -0.454074       -12.3560    7-B2
  19   1.0000      -0.428223       -11.6525    3-B1
  20   1.0000      -0.394289       -10.7291    9-A1
  21   1.0000      -0.382292       -10.4027    4-B1
  22   1.0000      -0.321969        -8.7612    3-A2
  23   1.0000      -0.314560        -8.5596    5-B1
  24   1.0000      -0.288362        -7.8467    8-B2
  25   1.0000      -0.288170        -7.8415   10-A1
  26   1.0000      -0.266321        -7.2470    4-A2
  27   1.0000      -0.214325        -5.8321    9-B2
  28   1.0000      -0.171152        -4.6573   11-A1
  29   0.0000       0.026406         0.7185   12-A1
  30   0.0000       0.030032         0.8172   13-A1
  31   0.0000       0.034886         0.9493    6-B1
  32   0.0000       0.053755         1.4627   10-B2
  33   0.0000       0.066557         1.8111   14-A1

                 SPIN DOWN ORBITALS
  NO   OCC          E(Eh)            E(eV)    Irrep
   0   1.0000     -10.180616      -277.0287    1-A1
   1   1.0000     -10.180613      -277.0286    1-B1
   2   1.0000     -10.180491      -277.0252    1-B2
   3   1.0000     -10.180486      -277.0251    1-A2
   4   1.0000     -10.175332      -276.8849    2-A1
   5   1.0000     -10.175123      -276.8792    2-B2
   6   1.0000     -10.165233      -276.6101    3-A1
   7   1.0000     -10.165233      -276.6100    3-B2
   8   1.0000      -0.919408       -25.0184    4-A1
   9   1.0000      -0.767637       -20.8885    4-B2
  10   1.0000      -0.706965       -19.2375    2-B1
  11   1.0000      -0.679673       -18.4948    5-A1
  12   1.0000      -0.574719       -15.6389    2-A2
  13   1.0000      -0.568863       -15.4796    5-B2
  14   1.0000      -0.544062       -14.8047    6-A1
  15   1.0000      -0.523935       -14.2570    7-A1
  16   1.0000      -0.469907       -12.7868    6-B2
  17   1.0000      -0.454000       -12.3540    8-A1
  18   1.0000      -0.449434       -12.2297    7-B2
  19   1.0000      -0.424371       -11.5477    3-B1
  20   1.0000      -0.375905       -10.2289    4-B1
  21   1.0000      -0.372245       -10.1293    9-A1
  22   1.0000      -0.313607        -8.5337    3-A2
  23   1.0000      -0.304496        -8.2858    5-B1
  24   1.0000      -0.282382        -7.6840    8-B2
  25   1.0000      -0.281846        -7.6694   10-A1
  26   1.0000      -0.264595        -7.2000    4-A2
  27   0.0000      -0.071756        -1.9526    9-B2
  28   0.0000      -0.044407        -1.2084   11-A1
  29   0.0000       0.027776         0.7558   12-A1
  30   0.0000       0.034230         0.9315   13-A1
  31   0.0000       0.035373         0.9626    6-B1

MULLIKEN ATOMIC CHARGES AND SPIN POPULATIONS
--------------------------------------------
   0 H :    0.012833    0.020190
   1 C :   -0.005254   -0.000816
   2 H :    0.012833    0.020190
   3 C :   -0.005254   -0.000816
   4 H :    0.030234   -0.017151
   5 C :   -0.034173    0.950314
   6 H :    0.030234   -0.017151
   7 C :   -0.034173    0.950314
   8 H :    0.057761    0.001369
   9 C :   -0.068981    0.026720
  10 H :    0.057761    0.001369
  11 C :   -0.068981    0.026720
  12 H :    0.012833    0.020190
  13 C :   -0.005254   -0.000816
  14 H :    0.012833    0.020190
  15 C :   -0.005254   -0.000816
Sum of atomic charges         :    0.0000000

LOEWDIN ATOMIC CHARGES AND SPIN POPULATIONS
-------------------------------------------
   0 H :   -0.075596    0.013020
   1 C :    0.043094    0.123491
   2 H :   -0.075596    0.013020
   3 C :    0.043094    0.123491
   4 H :   -0.122531    0.083625
   5 C :    0.193391    0.615203
   6 H :   -0.122531    0.083625
   7 C :    0.193391    0.615203
   8 H :   -0.081590    0.002781
   9 C :    0.075736    0.025369
  10 H :   -0.081590    0.002781
  11 C :    0.075736    0.025369
  12 H :   -0.075596    0.013020
  13 C :    0.043094    0.123491
  14 H :   -0.075596    0.013020
  15 C :    0.043094    0.123491

  Mayer bond orders larger than 0.1
B(  0-H ,  1-C ) :   0.9607 B(  1-C ,  3-C ) :   0.9184 B(  1-C ,  5-C ) :   1.0119
B(  1-C ,  9-C ) :   0.8935 B(  2-H ,  3-C ) :   0.9607 B(  3-C ,  7-C ) :   1.0119
B(  3-C , 11-C ) :   0.8935 B(  4-H ,  5-C ) :   0.9852 B(  5-C , 13-C ) :   1.0119
B(  6-H ,  7-C ) :   0.9852 B(  7-C , 15-C ) :   1.0119 B(  8-H ,  9-C ) :   0.9795
B(  9-C , 11-C ) :   0.9425 B(  9-C , 13-C ) :   0.8935 B( 10-H , 11-C ) :   0.9795
B( 11-C , 15-C ) :   0.8935 B( 12-H , 13-C ) :   0.9607 B( 13-C , 15-C ) :   0.9184
B( 14-H , 15-C ) :   0.9607

FINAL SINGLE POINT ENERGY      -309.318347669709

DIPOLE MOMENT
-------------
                                X             Y             Z
Electronic contribution:     -0.00000      -0.00000      -0.16679
Nuclear contribution   :      0.00000       0.00000       0.07586
                        -----------------------------------------
Total Dipole Moment    :     -0.00000      -0.00000      -0.09093
                        -----------------------------------------
Magnitude (a.u.)       :      0.09093
Magnitude (Debye)      :      0.23112

                             ****ORCA TERMINATED NORMALLY****
TOTAL RUN TIME: 0 days 2 hours 27 minutes 20 seconds 432 msec
