         Total SCF energy =   -307.484942586644
 CCSD total energy / hartree       =      -308.817051390221138
         Total SCF energy =   -307.484856618784
 CCSD total energy / hartree       =      -308.817044994451180
         Total SCF energy =   -307.485013430729
 CCSD total energy / hartree       =      -308.817043507638687
         Total SCF energy =   -307.484856618797
 CCSD total energy / hartree       =      -308.817044994464311
         Total SCF energy =   -307.485013430720
 CCSD total energy / hartree       =      -308.817043507629478
         Total SCF energy =   -307.484856618791
 CCSD total energy / hartree       =      -308.817044994458172
         Total SCF energy =   -307.485013430729
 CCSD total energy / hartree       =      -308.817043507638687
         Total SCF energy =   -307.484832102848
 CCSD total energy / hartree       =      -308.817019372418088
         Total SCF energy =   -307.484985472582
 CCSD total energy / hartree       =      -308.817019613820264
         Total SCF energy =   -307.484832102851
 CCSD total energy / hartree       =      -308.817019372420418
         Total SCF energy =   -307.484985472599
 CCSD total energy / hartree       =      -308.817019613836976
         Total SCF energy =   -307.484832102843
 CCSD total energy / hartree       =      -308.817019372412517
         Total SCF energy =   -307.484985472581
 CCSD total energy / hartree       =      -308.817019613818445
@ Step       Energy      Delta E   Gmax     Grms     Xrms     Xmax   Walltime
@ ---- ---------------- -------- -------- -------- -------- -------- --------
@    0    -308.81705139  0.0D+00  0.00005  0.00001  0.00000  0.00000 200196.5
         Total SCF energy =   -307.484933304321
 CCSD total energy / hartree       =      -308.817051434952077
         Total SCF energy =   -307.484933304321
 CCSD total energy / hartree       =      -308.817051434952077
         Total SCF energy =   -307.484846557997
 CCSD total energy / hartree       =      -308.817044267725748
         Total SCF energy =   -307.485004930480
 CCSD total energy / hartree       =      -308.817044295378366
         Total SCF energy =   -307.484846557997
 CCSD total energy / hartree       =      -308.817044267725237
         Total SCF energy =   -307.485004930484
 CCSD total energy / hartree       =      -308.817044295382345
         Total SCF energy =   -307.484846558006
 CCSD total energy / hartree       =      -308.817044267734332
         Total SCF energy =   -307.485004930474
 CCSD total energy / hartree       =      -308.817044295372796
         Total SCF energy =   -307.484823076488
 CCSD total energy / hartree       =      -308.817019661481197
         Total SCF energy =   -307.484975947115
 CCSD total energy / hartree       =      -308.817019394609531
         Total SCF energy =   -307.484823076479
 CCSD total energy / hartree       =      -308.817019661465167
         Total SCF energy =   -307.484975947097
 CCSD total energy / hartree       =      -308.817019394586850
         Total SCF energy =   -307.484823076489

 Vector   27  Occ=2.000000D+00  E=-3.839475D-01  Symmetry=b1g

 Vector   28  Occ=2.000000D+00  E=-3.817145D-01  Symmetry=b3g

 Vector   29  Occ=0.000000D+00  E= 1.456580D-01  Symmetry=ag

 Vector   30  Occ=0.000000D+00  E= 1.624161D-01  Symmetry=b3u

 Vector   31  Occ=0.000000D+00  E= 1.627775D-01  Symmetry=b2u

 Vector   32  Occ=0.000000D+00  E= 1.627775D-01  Symmetry=b1u

 Vector   33  Occ=0.000000D+00  E= 1.996472D-01  Symmetry=b3g

 Vector   34  Occ=0.000000D+00  E= 1.996784D-01  Symmetry=b1g

 Vector   35  Occ=0.000000D+00  E= 1.996784D-01  Symmetry=b2g

 Vector   36  Occ=0.000000D+00  E= 2.237269D-01  Symmetry=b3u

 Vector   37  Occ=0.000000D+00  E= 2.248224D-01  Symmetry=b2u

 Vector   38  Occ=0.000000D+00  E= 2.248224D-01  Symmetry=b1u

 Vector   39  Occ=0.000000D+00  E= 2.301430D-01  Symmetry=au

 Vector   40  Occ=0.000000D+00  E= 3.481152D-01  Symmetry=b1g

 Vector   41  Occ=0.000000D+00  E= 3.481152D-01  Symmetry=b2g

 Vector   42  Occ=0.000000D+00  E= 3.491813D-01  Symmetry=b3g

 Vector   43  Occ=0.000000D+00  E= 3.676486D-01  Symmetry=b2g

 Vector   44  Occ=0.000000D+00  E= 3.676486D-01  Symmetry=b1g

 Vector   45  Occ=0.000000D+00  E= 3.682136D-01  Symmetry=b3g

 Vector   46  Occ=0.000000D+00  E= 3.755648D-01  Symmetry=ag

 Vector   47  Occ=0.000000D+00  E= 3.755821D-01  Symmetry=ag

 Vector   48  Occ=0.000000D+00  E= 3.801901D-01  Symmetry=ag

 Vector   49  Occ=0.000000D+00  E= 4.340087D-01  Symmetry=b3u

 Vector   50  Occ=0.000000D+00  E= 4.343159D-01  Symmetry=b2u

 Vector   51  Occ=0.000000D+00  E= 4.343159D-01  Symmetry=b1u

 Vector   52  Occ=0.000000D+00  E= 4.831004D-01  Symmetry=au

 Vector   53  Occ=0.000000D+00  E= 4.834676D-01  Symmetry=au

 Vector   54  Occ=0.000000D+00  E= 4.963360D-01  Symmetry=b3u

 Vector   55  Occ=0.000000D+00  E= 4.979030D-01  Symmetry=b2u

 Vector   56  Occ=0.000000D+00  E= 4.979030D-01  Symmetry=b1u

 Vector   57  Occ=0.000000D+00  E= 5.697586D-01  Symmetry=ag

 CCSD total energy / hartree       =      -308.817019661480572
         Total SCF energy =   -307.484975947108

 Vector    9  Occ=2.000000D+00  E=-1.244239D+00  Symmetry=ag

 Vector   10  Occ=2.000000D+00  E=-9.789394D-01  Symmetry=b2u

 Vector   11  Occ=2.000000D+00  E=-9.789394D-01  Symmetry=b1u

 Vector   12  Occ=2.000000D+00  E=-9.773321D-01  Symmetry=b3u

 Vector   13  Occ=2.000000D+00  E=-7.681993D-01  Symmetry=b3g

 Vector   14  Occ=2.000000D+00  E=-7.672123D-01  Symmetry=b1g

 Vector   15  Occ=2.000000D+00  E=-7.672123D-01  Symmetry=b2g

 Vector   16  Occ=2.000000D+00  E=-7.102687D-01  Symmetry=ag

 Vector   17  Occ=2.000000D+00  E=-6.411301D-01  Symmetry=au

 Vector   18  Occ=2.000000D+00  E=-5.803628D-01  Symmetry=b1u

 Vector   19  Occ=2.000000D+00  E=-5.803628D-01  Symmetry=b2u

 Vector   20  Occ=2.000000D+00  E=-5.794765D-01  Symmetry=ag

 Vector   21  Occ=2.000000D+00  E=-5.793251D-01  Symmetry=ag

 Vector   22  Occ=2.000000D+00  E=-5.792016D-01  Symmetry=b3u

 Vector   23  Occ=2.000000D+00  E=-3.907579D-01  Symmetry=b2u

 Vector   24  Occ=2.000000D+00  E=-3.907579D-01  Symmetry=b1u

 Vector   25  Occ=2.000000D+00  E=-3.893514D-01  Symmetry=b3u

 Vector   26  Occ=2.000000D+00  E=-3.846140D-01  Symmetry=b3g

 Vector   27  Occ=2.000000D+00  E=-3.823806D-01  Symmetry=b2g

 Vector   28  Occ=2.000000D+00  E=-3.823806D-01  Symmetry=b1g

 Vector   29  Occ=0.000000D+00  E= 1.452514D-01  Symmetry=ag

 Vector   30  Occ=0.000000D+00  E= 1.627017D-01  Symmetry=b2u

 Vector   31  Occ=0.000000D+00  E= 1.627017D-01  Symmetry=b1u

 Vector   32  Occ=0.000000D+00  E= 1.630529D-01  Symmetry=b3u

 Vector   33  Occ=0.000000D+00  E= 1.997354D-01  Symmetry=b1g

 Vector   34  Occ=0.000000D+00  E= 1.997354D-01  Symmetry=b2g

 Vector   35  Occ=0.000000D+00  E= 1.997663D-01  Symmetry=b3g

 Vector   36  Occ=0.000000D+00  E= 2.240980D-01  Symmetry=b2u

 Vector   37  Occ=0.000000D+00  E= 2.240980D-01  Symmetry=b1u

 Vector   38  Occ=0.000000D+00  E= 2.252008D-01  Symmetry=b3u

 Vector   39  Occ=0.000000D+00  E= 2.301345D-01  Symmetry=au

 Vector   40  Occ=0.000000D+00  E= 3.485272D-01  Symmetry=b3g

 Vector   41  Occ=0.000000D+00  E= 3.495868D-01  Symmetry=b1g

 Vector   42  Occ=0.000000D+00  E= 3.495868D-01  Symmetry=b2g

 Vector   43  Occ=0.000000D+00  E= 3.676775D-01  Symmetry=b3g

 Vector   44  Occ=0.000000D+00  E= 3.682474D-01  Symmetry=b2g

 Vector   45  Occ=0.000000D+00  E= 3.682474D-01  Symmetry=b1g

 Vector   46  Occ=0.000000D+00  E= 3.749215D-01  Symmetry=ag

 Vector   47  Occ=0.000000D+00  E= 3.749404D-01  Symmetry=ag

 Vector   48  Occ=0.000000D+00  E= 3.799222D-01  Symmetry=ag

 Vector   49  Occ=0.000000D+00  E= 4.337043D-01  Symmetry=b2u

 Vector   50  Occ=0.000000D+00  E= 4.337043D-01  Symmetry=b1u

 Vector   51  Occ=0.000000D+00  E= 4.340126D-01  Symmetry=b3u

 Vector   52  Occ=0.000000D+00  E= 4.840437D-01  Symmetry=au

 Vector   53  Occ=0.000000D+00  E= 4.844065D-01  Symmetry=au

 Vector   54  Occ=0.000000D+00  E= 4.971301D-01  Symmetry=b2u

 Vector   55  Occ=0.000000D+00  E= 4.971301D-01  Symmetry=b1u

 Vector   56  Occ=0.000000D+00  E= 4.987119D-01  Symmetry=b3u

 Vector   57  Occ=0.000000D+00  E= 5.693061D-01  Symmetry=ag

       Multipole analysis of the density wrt the origin
       ------------------------------------------------

     L   x y z        total         open         nuclear
     -   - - -        -----         ----         -------
     0   0 0 0     -0.000000      0.000000     56.000000

     1   1 0 0      0.000000      0.000000      0.000000
     1   0 1 0      0.000000      0.000000      0.000000
     1   0 0 1      0.000000      0.000000      0.000000

     2   2 0 0    -34.964954      0.000000    161.633372
     2   1 1 0     -0.000000      0.000000      0.000000
     2   1 0 1      0.000000      0.000000      0.000000
     2   0 2 0    -34.958489      0.000000    162.135508
     2   0 1 1     -0.000000      0.000000      0.000000

 CCSD total energy / hartree       =      -308.817019394595150
@    1    -308.81705143 -4.5D-08  0.00000  0.00000  0.00008  0.00011 416322.2
@    1    -308.81705143 -4.5D-08  0.00000  0.00000  0.00008  0.00011 416322.2

 Output coordinates in angstroms (scale by  1.889725989 to convert to a.u.)

  No.       Tag          Charge          X              Y              Z
 ---- ---------------- ---------- -------------- -------------- --------------
    1 H                    1.0000     1.41035684     1.41035685     1.41035685
    2 H                    1.0000    -1.41035684    -1.41035685     1.41035685
    3 H                    1.0000    -1.41035684     1.41035685    -1.41035685
    4 H                    1.0000     1.41035684    -1.41035685    -1.41035685
    5 H                    1.0000    -1.41035684    -1.41035685    -1.41035685
    6 H                    1.0000     1.41035684     1.41035685    -1.41035685
    7 H                    1.0000     1.41035684    -1.41035685     1.41035685
    8 H                    1.0000    -1.41035684     1.41035685     1.41035685
    9 C                    6.0000     0.78381707     0.78381707     0.78381707
   10 C                    6.0000    -0.78381707    -0.78381707     0.78381707
   11 C                    6.0000    -0.78381707     0.78381707    -0.78381707
   12 C                    6.0000     0.78381707    -0.78381707    -0.78381707
   13 C                    6.0000    -0.78381707    -0.78381707    -0.78381707
   14 C                    6.0000     0.78381707     0.78381707    -0.78381707
   15 C                    6.0000     0.78381707    -0.78381707     0.78381707
   16 C                    6.0000    -0.78381707     0.78381707     0.78381707

 Total times  cpu:   265276.8s     wall:   416322.3s
