         Total SCF energy =   -307.453417122603
          Total MP2 energy          -308.701361814351
@ Step       Energy      Delta E   Gmax     Grms     Xrms     Xmax   Walltime
@ ---- ---------------- -------- -------- -------- -------- -------- --------
@    0    -308.70136181  0.0D+00  0.00982  0.00271  0.00000  0.00000   1951.0
         Total SCF energy =   -307.456550908629
          Total MP2 energy          -308.703073606707
         Total SCF energy =   -307.456550908629
          Total MP2 energy          -308.703073606707
@    1    -308.70307361 -1.7D-03  0.00132  0.00031  0.01842  0.03898   4345.8
         Total SCF energy =   -307.456577938603
          Total MP2 energy          -308.703109628895
         Total SCF energy =   -307.456576312000
          Total MP2 energy          -308.703111933749
@    2    -308.70311193 -3.8D-05  0.00052  0.00010  0.00291  0.00794   6997.3
         Total SCF energy =   -307.456518913364
          Total MP2 energy          -308.703119736801
         Total SCF energy =   -307.456360454911
          Total MP2 energy          -308.703128181178
@    3    -308.70312818 -1.6D-05  0.00044  0.00009  0.00199  0.00396   9626.6
         Total SCF energy =   -307.456363081808
          Total MP2 energy          -308.703133096656
         Total SCF energy =   -307.456362324699
          Total MP2 energy          -308.703135956184
@    4    -308.70313596 -7.8D-06  0.00036  0.00008  0.00195  0.00840  12312.7
         Total SCF energy =   -307.456352966095
          Total MP2 energy          -308.703141771146
         Total SCF energy =   -307.456320063474
          Total MP2 energy          -308.703154620879
@    5    -308.70315462 -1.9D-05  0.00025  0.00006  0.00565  0.02607  15085.4
         Total SCF energy =   -307.456249044909
          Total MP2 energy          -308.703163536503
         Total SCF energy =   -307.456240521071
          Total MP2 energy          -308.703163671677
@    6    -308.70316367 -9.1D-06  0.00005  0.00002  0.00692  0.03227  17849.8
         Total SCF energy =   -307.456234308984
          Total MP2 energy          -308.703164995804
         Total SCF energy =   -307.456213503972
          Total MP2 energy          -308.703166994848
@    7    -308.70316699 -3.3D-06  0.00011  0.00002  0.00285  0.01187  20523.4
         Total SCF energy =   -307.456230629186
          Total MP2 energy          -308.703167420254
         Total SCF energy =   -307.456236950365
          Total MP2 energy          -308.703167445368
@    8    -308.70316745 -4.5D-07  0.00003  0.00001  0.00079  0.00248  27020.0
         Total SCF energy =   -307.456238612080

 Vector   25  Occ=1.000000D+00  E=-4.148306D-01  Symmetry=b2

 Vector   26  Occ=1.000000D+00  E=-4.141506D-01  Symmetry=a1

 Vector   27  Occ=1.000000D+00  E=-3.818712D-01  Symmetry=a2

 Vector   28  Occ=1.000000D+00  E=-3.662378D-01  Symmetry=b2

 Vector   29  Occ=1.000000D+00  E=-2.992082D-01  Symmetry=a1

 Vector   30  Occ=0.000000D+00  E= 1.465349D-01  Symmetry=a1

 Vector   31  Occ=0.000000D+00  E= 1.597174D-01  Symmetry=a1

 Vector   32  Occ=0.000000D+00  E= 1.632725D-01  Symmetry=b1

 Vector   33  Occ=0.000000D+00  E= 1.807332D-01  Symmetry=b2

 Vector   34  Occ=0.000000D+00  E= 1.920205D-01  Symmetry=a1

 Vector   35  Occ=0.000000D+00  E= 1.997673D-01  Symmetry=a2

 Vector   36  Occ=0.000000D+00  E= 2.048163D-01  Symmetry=b2

 Vector   37  Occ=0.000000D+00  E= 2.275073D-01  Symmetry=b2

 Vector   38  Occ=0.000000D+00  E= 2.329130D-01  Symmetry=a1

 Vector   39  Occ=0.000000D+00  E= 2.424493D-01  Symmetry=b1

 Vector   40  Occ=0.000000D+00  E= 2.914225D-01  Symmetry=b2

 Vector   41  Occ=0.000000D+00  E= 3.317010D-01  Symmetry=a1

 Vector   42  Occ=0.000000D+00  E= 3.415524D-01  Symmetry=a2

 Vector   43  Occ=0.000000D+00  E= 3.485532D-01  Symmetry=b1

 Vector   44  Occ=0.000000D+00  E= 3.487586D-01  Symmetry=a2

 Vector   45  Occ=0.000000D+00  E= 3.508837D-01  Symmetry=b2

 Vector   46  Occ=0.000000D+00  E= 3.783975D-01  Symmetry=a1

 Vector   47  Occ=0.000000D+00  E= 3.801256D-01  Symmetry=b1

 Vector   48  Occ=0.000000D+00  E= 4.063684D-01  Symmetry=b2

 Vector   49  Occ=0.000000D+00  E= 4.095109D-01  Symmetry=a1

 Vector   50  Occ=0.000000D+00  E= 4.232201D-01  Symmetry=b1

 Vector   51  Occ=0.000000D+00  E= 4.238792D-01  Symmetry=a2

 Vector   52  Occ=0.000000D+00  E= 4.644377D-01  Symmetry=b2

 Vector   53  Occ=0.000000D+00  E= 4.851185D-01  Symmetry=a1

 Vector   54  Occ=0.000000D+00  E= 4.965490D-01  Symmetry=a1

 Vector   55  Occ=0.000000D+00  E= 4.967469D-01  Symmetry=a2

 Vector   56  Occ=0.000000D+00  E= 5.286818D-01  Symmetry=a1

 Vector    9  Occ=1.000000D+00  E=-1.216660D+00  Symmetry=a1

 Vector   10  Occ=1.000000D+00  E=-1.023008D+00  Symmetry=b2

 Vector   11  Occ=1.000000D+00  E=-9.599217D-01  Symmetry=b1

 Vector   12  Occ=1.000000D+00  E=-9.149966D-01  Symmetry=a1

 Vector   13  Occ=1.000000D+00  E=-7.877621D-01  Symmetry=a2

 Vector   14  Occ=1.000000D+00  E=-7.718947D-01  Symmetry=b2

 Vector   15  Occ=1.000000D+00  E=-7.374735D-01  Symmetry=a1

 Vector   16  Occ=1.000000D+00  E=-6.985382D-01  Symmetry=a1

 Vector   17  Occ=1.000000D+00  E=-6.438633D-01  Symmetry=b2

 Vector   18  Occ=1.000000D+00  E=-6.103492D-01  Symmetry=a1

 Vector   19  Occ=1.000000D+00  E=-6.089294D-01  Symmetry=b2

 Vector   20  Occ=1.000000D+00  E=-5.729980D-01  Symmetry=b1

 Vector   21  Occ=1.000000D+00  E=-5.216489D-01  Symmetry=b1

 Vector   22  Occ=1.000000D+00  E=-4.975951D-01  Symmetry=a1

 Vector   23  Occ=1.000000D+00  E=-4.399252D-01  Symmetry=a2

 Vector   24  Occ=1.000000D+00  E=-4.227548D-01  Symmetry=b1

 Vector   25  Occ=1.000000D+00  E=-4.059596D-01  Symmetry=b2

 Vector   26  Occ=1.000000D+00  E=-4.029921D-01  Symmetry=a1

 Vector   27  Occ=1.000000D+00  E=-3.803389D-01  Symmetry=a2

 Vector   28  Occ=0.000000D+00  E= 1.145076D-01  Symmetry=b2

 Vector   29  Occ=0.000000D+00  E= 1.314935D-01  Symmetry=a1

 Vector   30  Occ=0.000000D+00  E= 1.526699D-01  Symmetry=a1

 Vector   31  Occ=0.000000D+00  E= 1.642640D-01  Symmetry=b1

 Vector   32  Occ=0.000000D+00  E= 1.735317D-01  Symmetry=a1

 Vector   33  Occ=0.000000D+00  E= 1.904379D-01  Symmetry=b2

 Vector   34  Occ=0.000000D+00  E= 1.962902D-01  Symmetry=a1

 Vector   35  Occ=0.000000D+00  E= 2.017751D-01  Symmetry=a2

 Vector   36  Occ=0.000000D+00  E= 2.091680D-01  Symmetry=b2

 Vector   37  Occ=0.000000D+00  E= 2.315054D-01  Symmetry=b2

 Vector   38  Occ=0.000000D+00  E= 2.383980D-01  Symmetry=a1

 Vector   39  Occ=0.000000D+00  E= 2.435798D-01  Symmetry=b1

 Vector   40  Occ=0.000000D+00  E= 3.304585D-01  Symmetry=b2

 Vector   41  Occ=0.000000D+00  E= 3.492681D-01  Symmetry=a2

 Vector   42  Occ=0.000000D+00  E= 3.518066D-01  Symmetry=a1

 Vector   43  Occ=0.000000D+00  E= 3.540610D-01  Symmetry=a2

 Vector   44  Occ=0.000000D+00  E= 3.549376D-01  Symmetry=b1

 Vector   45  Occ=0.000000D+00  E= 3.612301D-01  Symmetry=b2

 Vector   46  Occ=0.000000D+00  E= 3.837009D-01  Symmetry=b1

 Vector   47  Occ=0.000000D+00  E= 3.971481D-01  Symmetry=a1

 Vector   48  Occ=0.000000D+00  E= 4.145664D-01  Symmetry=a1

 Vector   49  Occ=0.000000D+00  E= 4.244834D-01  Symmetry=a2

 Vector   50  Occ=0.000000D+00  E= 4.278622D-01  Symmetry=b1

 Vector   51  Occ=0.000000D+00  E= 4.483977D-01  Symmetry=b2

 Vector   52  Occ=0.000000D+00  E= 4.843983D-01  Symmetry=b2

 Vector   53  Occ=0.000000D+00  E= 5.019831D-01  Symmetry=a2

 Vector   54  Occ=0.000000D+00  E= 5.107876D-01  Symmetry=a1

 Vector   55  Occ=0.000000D+00  E= 5.248340D-01  Symmetry=a1

 Vector   56  Occ=0.000000D+00  E= 5.348617D-01  Symmetry=b1

       Multipole analysis of the density wrt the origin
       ------------------------------------------------

     L   x y z        total         alpha         beta         nuclear
     -   - - -        -----         -----         ----         -------
     0   0 0 0     -0.000000    -29.000000    -27.000000     56.000000

     1   1 0 0     -0.000000      0.000000     -0.000000      0.000000
     1   0 1 0      0.000000      0.000000      0.000000      0.000000
     1   0 0 1      0.053123      1.665907     -1.557094     -0.055690

     2   2 0 0    -34.277447    -96.948178    -94.750147    157.420878
     2   1 1 0     -0.000000      0.000000     -0.000000      0.000000
     2   1 0 1      0.000000      0.000000      0.000000      0.000000
     2   0 2 0    -37.303146   -133.517159   -113.921153    210.135166
     2   0 1 1      0.000000     -0.000000      0.000000      0.000000

          Total MP2 energy          -308.703167492670
         Total SCF energy =   -307.456238612080
          Total MP2 energy          -308.703167492670
@    9    -308.70316749 -4.7D-08  0.00001  0.00000  0.00010  0.00037  43105.5
@    9    -308.70316749 -4.7D-08  0.00001  0.00000  0.00010  0.00037  43105.5

 Output coordinates in angstroms (scale by  1.889725989 to convert to a.u.)

  No.       Tag          Charge          X              Y              Z
 ---- ---------------- ---------- -------------- -------------- --------------
    1 H                    1.0000     2.04590157    -1.27270098     0.01447912
    2 C                    6.0000     1.06730753    -0.80528423    -0.05671687
    3 H                    1.0000     2.04590157     1.27270098     0.01447912
    4 C                    6.0000     1.06730753     0.80528423    -0.05671687
    5 H                    1.0000     0.00000000    -1.52773530    -2.03443222
    6 C                    6.0000     0.00000000    -1.31653657    -0.97322228
    7 H                    1.0000     0.00000000     1.52773530    -2.03443222
    8 C                    6.0000     0.00000000     1.31653657    -0.97322228
    9 H                    1.0000     0.00000000    -1.44727888     1.94364916
   10 C                    6.0000     0.00000000    -0.77162098     1.09450432
   11 H                    1.0000     0.00000000     1.44727888     1.94364916
   12 C                    6.0000     0.00000000     0.77162098     1.09450432
   13 H                    1.0000    -2.04590157    -1.27270098     0.01447912
   14 C                    6.0000    -1.06730753    -0.80528423    -0.05671687
   15 H                    1.0000    -2.04590157     1.27270098     0.01447912
   16 C                    6.0000    -1.06730753     0.80528423    -0.05671687

 Total times  cpu:    47380.0s     wall:    43105.5s
