         Total SCF energy =   -307.456238612501
          Total MP2 energy          -308.703167491807
@ Step       Energy      Delta E   Gmax     Grms     Xrms     Xmax   Walltime
@ ---- ---------------- -------- -------- -------- -------- -------- --------
@    0    -308.70316749  0.0D+00  0.00001  0.00000  0.00000  0.00000   2106.5
         Total SCF energy =   -307.456239630688

 Vector   25  Occ=1.000000D+00  E=-4.148324D-01  Symmetry=b2

 Vector   26  Occ=1.000000D+00  E=-4.141452D-01  Symmetry=a1

 Vector   27  Occ=1.000000D+00  E=-3.818726D-01  Symmetry=a2

 Vector   28  Occ=1.000000D+00  E=-3.662382D-01  Symmetry=b2

 Vector   29  Occ=1.000000D+00  E=-2.992090D-01  Symmetry=a1

 Vector   30  Occ=0.000000D+00  E= 1.465345D-01  Symmetry=a1

 Vector   31  Occ=0.000000D+00  E= 1.597166D-01  Symmetry=a1

 Vector   32  Occ=0.000000D+00  E= 1.632729D-01  Symmetry=b1

 Vector   33  Occ=0.000000D+00  E= 1.807366D-01  Symmetry=b2

 Vector   34  Occ=0.000000D+00  E= 1.920190D-01  Symmetry=a1

 Vector   35  Occ=0.000000D+00  E= 1.997673D-01  Symmetry=a2

 Vector   36  Occ=0.000000D+00  E= 2.048160D-01  Symmetry=b2

 Vector   37  Occ=0.000000D+00  E= 2.275063D-01  Symmetry=b2

 Vector   38  Occ=0.000000D+00  E= 2.329165D-01  Symmetry=a1

 Vector   39  Occ=0.000000D+00  E= 2.424499D-01  Symmetry=b1

 Vector   40  Occ=0.000000D+00  E= 2.914225D-01  Symmetry=b2

 Vector   41  Occ=0.000000D+00  E= 3.316987D-01  Symmetry=a1

 Vector   42  Occ=0.000000D+00  E= 3.415522D-01  Symmetry=a2

 Vector   43  Occ=0.000000D+00  E= 3.485540D-01  Symmetry=b1

 Vector   44  Occ=0.000000D+00  E= 3.487587D-01  Symmetry=a2

 Vector   45  Occ=0.000000D+00  E= 3.508849D-01  Symmetry=b2

 Vector   46  Occ=0.000000D+00  E= 3.783921D-01  Symmetry=a1

 Vector   47  Occ=0.000000D+00  E= 3.801237D-01  Symmetry=b1

 Vector   48  Occ=0.000000D+00  E= 4.063673D-01  Symmetry=b2

 Vector   49  Occ=0.000000D+00  E= 4.095192D-01  Symmetry=a1

 Vector   50  Occ=0.000000D+00  E= 4.232202D-01  Symmetry=b1

 Vector   51  Occ=0.000000D+00  E= 4.238813D-01  Symmetry=a2

 Vector   52  Occ=0.000000D+00  E= 4.644417D-01  Symmetry=b2

 Vector   53  Occ=0.000000D+00  E= 4.851199D-01  Symmetry=a1

 Vector   54  Occ=0.000000D+00  E= 4.965413D-01  Symmetry=a1

 Vector   55  Occ=0.000000D+00  E= 4.967452D-01  Symmetry=a2

 Vector   56  Occ=0.000000D+00  E= 5.286844D-01  Symmetry=a1

 Vector    9  Occ=1.000000D+00  E=-1.216663D+00  Symmetry=a1

 Vector   10  Occ=1.000000D+00  E=-1.023008D+00  Symmetry=b2

 Vector   11  Occ=1.000000D+00  E=-9.599232D-01  Symmetry=b1

 Vector   12  Occ=1.000000D+00  E=-9.149990D-01  Symmetry=a1

 Vector   13  Occ=1.000000D+00  E=-7.877625D-01  Symmetry=a2

 Vector   14  Occ=1.000000D+00  E=-7.718909D-01  Symmetry=b2

 Vector   15  Occ=1.000000D+00  E=-7.374738D-01  Symmetry=a1

 Vector   16  Occ=1.000000D+00  E=-6.985401D-01  Symmetry=a1

 Vector   17  Occ=1.000000D+00  E=-6.438627D-01  Symmetry=b2

 Vector   18  Occ=1.000000D+00  E=-6.103455D-01  Symmetry=a1

 Vector   19  Occ=1.000000D+00  E=-6.089303D-01  Symmetry=b2

 Vector   20  Occ=1.000000D+00  E=-5.730004D-01  Symmetry=b1

 Vector   21  Occ=1.000000D+00  E=-5.216498D-01  Symmetry=b1

 Vector   22  Occ=1.000000D+00  E=-4.976004D-01  Symmetry=a1

 Vector   23  Occ=1.000000D+00  E=-4.399257D-01  Symmetry=a2

 Vector   24  Occ=1.000000D+00  E=-4.227558D-01  Symmetry=b1

 Vector   25  Occ=1.000000D+00  E=-4.059613D-01  Symmetry=b2

 Vector   26  Occ=1.000000D+00  E=-4.029849D-01  Symmetry=a1

 Vector   27  Occ=1.000000D+00  E=-3.803402D-01  Symmetry=a2

 Vector   28  Occ=0.000000D+00  E= 1.145082D-01  Symmetry=b2

 Vector   29  Occ=0.000000D+00  E= 1.314933D-01  Symmetry=a1

 Vector   30  Occ=0.000000D+00  E= 1.526689D-01  Symmetry=a1

 Vector   31  Occ=0.000000D+00  E= 1.642645D-01  Symmetry=b1

 Vector   32  Occ=0.000000D+00  E= 1.735315D-01  Symmetry=a1

 Vector   33  Occ=0.000000D+00  E= 1.904410D-01  Symmetry=b2

 Vector   34  Occ=0.000000D+00  E= 1.962886D-01  Symmetry=a1

 Vector   35  Occ=0.000000D+00  E= 2.017751D-01  Symmetry=a2

 Vector   36  Occ=0.000000D+00  E= 2.091673D-01  Symmetry=b2

 Vector   37  Occ=0.000000D+00  E= 2.315045D-01  Symmetry=b2

 Vector   38  Occ=0.000000D+00  E= 2.384021D-01  Symmetry=a1

 Vector   39  Occ=0.000000D+00  E= 2.435804D-01  Symmetry=b1

 Vector   40  Occ=0.000000D+00  E= 3.304596D-01  Symmetry=b2

 Vector   41  Occ=0.000000D+00  E= 3.492682D-01  Symmetry=a2

 Vector   42  Occ=0.000000D+00  E= 3.518035D-01  Symmetry=a1

 Vector   43  Occ=0.000000D+00  E= 3.540608D-01  Symmetry=a2

 Vector   44  Occ=0.000000D+00  E= 3.549384D-01  Symmetry=b1

 Vector   45  Occ=0.000000D+00  E= 3.612325D-01  Symmetry=b2

 Vector   46  Occ=0.000000D+00  E= 3.836989D-01  Symmetry=b1

 Vector   47  Occ=0.000000D+00  E= 3.971435D-01  Symmetry=a1

 Vector   48  Occ=0.000000D+00  E= 4.145732D-01  Symmetry=a1

 Vector   49  Occ=0.000000D+00  E= 4.244854D-01  Symmetry=a2

 Vector   50  Occ=0.000000D+00  E= 4.278622D-01  Symmetry=b1

 Vector   51  Occ=0.000000D+00  E= 4.483911D-01  Symmetry=b2

 Vector   52  Occ=0.000000D+00  E= 4.844046D-01  Symmetry=b2

 Vector   53  Occ=0.000000D+00  E= 5.019816D-01  Symmetry=a2

 Vector   54  Occ=0.000000D+00  E= 5.107840D-01  Symmetry=a1

 Vector   55  Occ=0.000000D+00  E= 5.248349D-01  Symmetry=a1

 Vector   56  Occ=0.000000D+00  E= 5.348624D-01  Symmetry=b1

       Multipole analysis of the density wrt the origin
       ------------------------------------------------

     L   x y z        total         alpha         beta         nuclear
     -   - - -        -----         -----         ----         -------
     0   0 0 0     -0.000000    -29.000000    -27.000000     56.000000

     1   1 0 0      0.000000      0.000000      0.000000     -0.000000
     1   0 1 0      0.000000      0.000000      0.000000     -0.000000
     1   0 0 1      0.053152      1.637607     -1.583437     -0.001018

     2   2 0 0    -34.277410    -96.948546    -94.750532    157.421667
     2   1 1 0      0.000000     -0.000000      0.000000      0.000000
     2   1 0 1      0.000000      0.000000      0.000000      0.000000
     2   0 2 0    -37.303353   -133.516721   -113.920705    210.134072
     2   0 1 1     -0.000000     -0.000000      0.000000     -0.000000

          Total MP2 energy          -308.703167514798
         Total SCF energy =   -307.456239630688
          Total MP2 energy          -308.703167514798
@    1    -308.70316751 -2.3D-08  0.00001  0.00000  0.00005  0.00019   4252.7
@    1    -308.70316751 -2.3D-08  0.00001  0.00000  0.00005  0.00019   4252.7

 Output coordinates in angstroms (scale by  1.889725989 to convert to a.u.)

  No.       Tag          Charge          X              Y              Z
 ---- ---------------- ---------- -------------- -------------- --------------
    1 H                    1.0000     2.04590322    -1.27270811     0.01500902
    2 C                    6.0000     1.06731132    -0.80528458    -0.05620093
    3 H                    1.0000     2.04590322     1.27270811     0.01500902
    4 C                    6.0000     1.06731132     0.80528458    -0.05620093
    5 H                    1.0000     0.00000000    -1.52776266    -2.03390697
    6 C                    6.0000     0.00000000    -1.31654305    -0.97270354
    7 H                    1.0000     0.00000000     1.52776266    -2.03390697
    8 C                    6.0000     0.00000000     1.31654305    -0.97270354
    9 H                    1.0000     0.00000000    -1.44717728     1.94422298
   10 C                    6.0000     0.00000000    -0.77161146     1.09500482
   11 H                    1.0000     0.00000000     1.44717728     1.94422298
   12 C                    6.0000     0.00000000     0.77161146     1.09500482
   13 H                    1.0000    -2.04590322    -1.27270811     0.01500902
   14 C                    6.0000    -1.06731132    -0.80528458    -0.05620093
   15 H                    1.0000    -2.04590322     1.27270811     0.01500902
   16 C                    6.0000    -1.06731132     0.80528458    -0.05620093

 Total times  cpu:     5730.3s     wall:     4252.7s
