                         Program Version 4.0.0 -  RELEASE  -
|  1> # ================================================================
|  2> # Orca input file for cubane RI-MP2/cc-pVDZ geometry optimization
|  3> # ================================================================
|  4> ! RHF RI-MP2 cc-pVDZ cc-pVDZ/C TightSCF TightOPT UseSym
|  5> ! PAL4
|  6>
|  7> * xyz 0 1
|  8>   H      -1.423     -1.423     -1.423
|  9>   C      -0.788     -0.788     -0.788
| 10>   H      -1.423     -1.423      1.423
| 11>   C      -0.788     -0.788      0.788
| 12>   H      -1.423      1.423     -1.423
| 13>   C      -0.788      0.788     -0.788
| 14>   H       1.423     -1.423     -1.423
| 15>   C       0.788     -0.788     -0.788
| 16>   H      -1.423      1.423      1.423
| 17>   C      -0.788      0.788      0.788
| 18>   H       1.423     -1.423      1.423
| 19>   C       0.788     -0.788      0.788
| 20>   H       1.423      1.423     -1.423
| 21>   C       0.788      0.788     -0.788
| 22>   H       1.423      1.423      1.423
| 23>   C       0.788      0.788      0.788
| 24> *
| 25>
| 26>                          ****END OF INPUT****
 Total Charge           Charge          ....    0
 Multiplicity           Mult            ....    1
 Number of Electrons    NEL             ....   56
MP2 TOTAL ENERGY:     -308.483639343 Eh
FINAL SINGLE POINT ENERGY      -308.483639343360
MP2 TOTAL ENERGY:     -308.483641019 Eh
FINAL SINGLE POINT ENERGY      -308.483641019197
                    ***********************HURRAY********************

CARTESIAN COORDINATES (ANGSTROEM)
---------------------------------
  H     -1.423379    1.423379    1.423379
  C     -0.788054    0.788054    0.788054
  H     -1.423379   -1.423379    1.423379
  C     -0.788054   -0.788054    0.788054
  H      1.423379    1.423379    1.423379
  C      0.788054    0.788054    0.788054
  H     -1.423379    1.423379   -1.423379
  C     -0.788054    0.788054   -0.788054
  H      1.423379   -1.423379    1.423379
  C      0.788054   -0.788054    0.788054
  H     -1.423379   -1.423379   -1.423379
  C     -0.788054   -0.788054   -0.788054
  H      1.423379    1.423379   -1.423379
  C      0.788054    0.788054   -0.788054
  H      1.423379   -1.423379   -1.423379
  C      0.788054   -0.788054   -0.788054

 Multiplicity           Mult            ....    1
 Number of Electrons    NEL             ....   56
 Basis Dimension        Dim             ....  152

ORBITAL ENERGIES
----------------

  NO   OCC          E(Eh)            E(eV)    Irrep
   0   2.0000     -11.229261      -305.5637    1-Ag
   1   2.0000     -11.228786      -305.5508    1-B1u
   2   2.0000     -11.228786      -305.5508    1-B3u
   3   2.0000     -11.228786      -305.5508    1-B2u
   4   2.0000     -11.228303      -305.5376    1-B2g
   5   2.0000     -11.228303      -305.5376    1-B3g
   6   2.0000     -11.228303      -305.5376    1-B1g
   7   2.0000     -11.227802      -305.5240    1-Au
   8   2.0000      -1.240555       -33.7572    2-Ag
   9   2.0000      -0.976780       -26.5795    2-B1u
  10   2.0000      -0.976780       -26.5795    2-B3u
  11   2.0000      -0.976780       -26.5795    2-B2u
  12   2.0000      -0.765880       -20.8407    2-B2g
  13   2.0000      -0.765880       -20.8407    2-B3g
  14   2.0000      -0.765880       -20.8407    2-B1g
  15   2.0000      -0.704811       -19.1789    3-Ag
  16   2.0000      -0.638766       -17.3817    2-Au
  17   2.0000      -0.576857       -15.6971    3-B1u
  18   2.0000      -0.576857       -15.6971    3-B3u
  19   2.0000      -0.576857       -15.6971    3-B2u
  20   2.0000      -0.576045       -15.6750    4-Ag
  21   2.0000      -0.576045       -15.6750    5-Ag
  22   2.0000      -0.389753       -10.6057    4-B1u
  23   2.0000      -0.389753       -10.6057    4-B3u
  24   2.0000      -0.389753       -10.6057    4-B2u
  25   2.0000      -0.384051       -10.4506    3-B2g
  26   2.0000      -0.384051       -10.4506    3-B3g
  27   2.0000      -0.384051       -10.4506    3-B1g
  28   0.0000       0.181401         4.9362    6-Ag
  29   0.0000       0.203113         5.5270    5-B1u
  30   0.0000       0.203113         5.5270    5-B3u
  31   0.0000       0.203113         5.5270    5-B2u
  32   0.0000       0.253626         6.9015    4-B2g

MULLIKEN ATOMIC CHARGES
-----------------------
   0 H :   -0.001183
   1 C :    0.001183
   2 H :   -0.001183
   3 C :    0.001183
   4 H :   -0.001183
   5 C :    0.001183
   6 H :   -0.001183
   7 C :    0.001183
   8 H :   -0.001183
   9 C :    0.001183
  10 H :   -0.001183
  11 C :    0.001183
  12 H :   -0.001183
  13 C :    0.001183
  14 H :   -0.001183
  15 C :    0.001183
Sum of atomic charges:    0.0000000

LOEWDIN ATOMIC CHARGES
----------------------
   0 H :    0.003455
   1 C :   -0.003455
   2 H :    0.003455
   3 C :   -0.003455
   4 H :    0.003455
   5 C :   -0.003455
   6 H :    0.003455
   7 C :   -0.003455
   8 H :    0.003455
   9 C :   -0.003455
  10 H :    0.003455
  11 C :   -0.003455
  12 H :    0.003455
  13 C :   -0.003455
  14 H :    0.003455
  15 C :   -0.003455

  Mayer bond orders larger than 0.1
B(  0-H ,  1-C ) :   0.9382 B(  1-C ,  3-C ) :   0.9141 B(  1-C ,  5-C ) :   0.9141
B(  1-C ,  7-C ) :   0.9141 B(  2-H ,  3-C ) :   0.9382 B(  3-C ,  9-C ) :   0.9141
B(  3-C , 11-C ) :   0.9141 B(  4-H ,  5-C ) :   0.9382 B(  5-C ,  9-C ) :   0.9141
B(  5-C , 13-C ) :   0.9141 B(  6-H ,  7-C ) :   0.9382 B(  7-C , 11-C ) :   0.9141
B(  7-C , 13-C ) :   0.9141 B(  8-H ,  9-C ) :   0.9382 B(  9-C , 15-C ) :   0.9141
B( 10-H , 11-C ) :   0.9382 B( 11-C , 15-C ) :   0.9141 B( 12-H , 13-C ) :   0.9382
B( 13-C , 15-C ) :   0.9141 B( 14-H , 15-C ) :   0.9382

MP2 TOTAL ENERGY:     -308.483641054 Eh
FINAL SINGLE POINT ENERGY      -308.483641053879

DIPOLE MOMENT
-------------
                                X             Y             Z
Electronic contribution:     -0.00000       0.00000      -0.00000
Nuclear contribution   :     -0.00000      -0.00000       0.00000
                        -----------------------------------------
Total Dipole Moment    :     -0.00000      -0.00000      -0.00000
                        -----------------------------------------
Magnitude (a.u.)       :      0.00000
Magnitude (Debye)      :      0.00000

                             ****ORCA TERMINATED NORMALLY****
TOTAL RUN TIME: 0 days 0 hours 1 minutes 42 seconds 938 msec
