                         Program Version 4.0.0 -  RELEASE  -
|  1> # ================================================================
|  2> # Orca input file for cubane RI-MP2/cc-pVQZ geometry optimization
|  3> # ================================================================
|  4> ! RHF RI-MP2 cc-pVQZ cc-pVQZ/C TightSCF TightOPT UseSym
|  5> ! PAL4
|  6>
|  7> * xyz 0 1
|  8>   H      -1.409     -1.409     -1.409
|  9>   C      -0.782     -0.782     -0.782
| 10>   H      -1.409     -1.409      1.409
| 11>   C      -0.782     -0.782      0.782
| 12>   H      -1.409      1.409     -1.409
| 13>   C      -0.782      0.782     -0.782
| 14>   H       1.409     -1.409     -1.409
| 15>   C       0.782     -0.782     -0.782
| 16>   H      -1.409      1.409      1.409
| 17>   C      -0.782      0.782      0.782
| 18>   H       1.409     -1.409      1.409
| 19>   C       0.782     -0.782      0.782
| 20>   H       1.409      1.409     -1.409
| 21>   C       0.782      0.782     -0.782
| 22>   H       1.409      1.409      1.409
| 23>   C       0.782      0.782      0.782
| 24> *
| 25>
| 26>                          ****END OF INPUT****
 Total Charge           Charge          ....    0
 Multiplicity           Mult            ....    1
 Number of Electrons    NEL             ....   56
MP2 TOTAL ENERGY:     -308.875709125 Eh
FINAL SINGLE POINT ENERGY      -308.875709125488
MP2 TOTAL ENERGY:     -308.875717089 Eh
FINAL SINGLE POINT ENERGY      -308.875717088812
                    ***********************HURRAY********************

CARTESIAN COORDINATES (ANGSTROEM)
---------------------------------
  H     -1.408063    1.408063    1.408064
  C     -0.781588    0.781588    0.781588
  H     -1.408063   -1.408063    1.408064
  C     -0.781588   -0.781588    0.781588
  H      1.408063    1.408063    1.408063
  C      0.781588    0.781588    0.781588
  H     -1.408063    1.408063   -1.408063
  C     -0.781588    0.781588   -0.781588
  H      1.408063   -1.408063    1.408063
  C      0.781588   -0.781588    0.781588
  H     -1.408063   -1.408063   -1.408063
  C     -0.781588   -0.781588   -0.781588
  H      1.408063    1.408063   -1.408064
  C      0.781588    0.781588   -0.781588
  H      1.408063   -1.408063   -1.408064
  C      0.781588   -0.781588   -0.781588

 Multiplicity           Mult            ....    1
 Number of Electrons    NEL             ....   56
 Basis Dimension        Dim             ....  680

ORBITAL ENERGIES
----------------

  NO   OCC          E(Eh)            E(eV)    Irrep
   0   2.0000     -11.218858      -305.2806    1-Ag
   1   2.0000     -11.218352      -305.2669    1-B2u
   2   2.0000     -11.218352      -305.2669    1-B3u
   3   2.0000     -11.218352      -305.2669    1-B1u
   4   2.0000     -11.217835      -305.2528    1-B3g
   5   2.0000     -11.217835      -305.2528    1-B1g
   6   2.0000     -11.217835      -305.2528    1-B2g
   7   2.0000     -11.217302      -305.2383    1-Au
   8   2.0000      -1.246739       -33.9255    2-Ag
   9   2.0000      -0.979500       -26.6535    2-B1u
  10   2.0000      -0.979500       -26.6535    2-B2u
  11   2.0000      -0.979500       -26.6535    2-B3u
  12   2.0000      -0.767625       -20.8881    2-B3g
  13   2.0000      -0.767625       -20.8881    2-B2g
  14   2.0000      -0.767625       -20.8881    2-B1g
  15   2.0000      -0.711392       -19.3580    3-Ag
  16   2.0000      -0.640804       -17.4372    2-Au
  17   2.0000      -0.581120       -15.8131    4-Ag
  18   2.0000      -0.581120       -15.8131    5-Ag
  19   2.0000      -0.580677       -15.8010    3-B1u
  20   2.0000      -0.580677       -15.8010    3-B2u
  21   2.0000      -0.580677       -15.8010    3-B3u
  22   2.0000      -0.390985       -10.6392    4-B1u
  23   2.0000      -0.390985       -10.6392    4-B2u
  24   2.0000      -0.390985       -10.6392    4-B3u
  25   2.0000      -0.383145       -10.4259    3-B3g
  26   2.0000      -0.383145       -10.4259    3-B2g
  27   2.0000      -0.383145       -10.4259    3-B1g
  28   0.0000       0.116250         3.1633    6-Ag
  29   0.0000       0.131349         3.5742    5-B1u
  30   0.0000       0.131349         3.5742    5-B2u
  31   0.0000       0.131349         3.5742    5-B3u
  32   0.0000       0.160999         4.3810    4-B3g

MULLIKEN ATOMIC CHARGES
-----------------------
   0 H :    0.207588
   1 C :   -0.207589
   2 H :    0.207588
   3 C :   -0.207588
   4 H :    0.207588
   5 C :   -0.207587
   6 H :    0.207588
   7 C :   -0.207587
   8 H :    0.207588
   9 C :   -0.207587
  10 H :    0.207588
  11 C :   -0.207587
  12 H :    0.207588
  13 C :   -0.207589
  14 H :    0.207588
  15 C :   -0.207588
Sum of atomic charges:   -0.0000000

LOEWDIN ATOMIC CHARGES
----------------------
   0 H :   -0.121645
   1 C :    0.121645
   2 H :   -0.121645
   3 C :    0.121645
   4 H :   -0.121645
   5 C :    0.121645
   6 H :   -0.121645
   7 C :    0.121645
   8 H :   -0.121645
   9 C :    0.121645
  10 H :   -0.121645
  11 C :    0.121645
  12 H :   -0.121645
  13 C :    0.121645
  14 H :   -0.121645
  15 C :    0.121645

  Mayer bond orders larger than 0.1
B(  0-H ,  1-C ) :   0.9146 B(  1-C ,  3-C ) :   0.8666 B(  1-C ,  5-C ) :   0.8666
B(  1-C ,  7-C ) :   0.8666 B(  2-H ,  3-C ) :   0.9146 B(  3-C ,  9-C ) :   0.8666
B(  3-C , 11-C ) :   0.8666 B(  4-H ,  5-C ) :   0.9146 B(  5-C ,  9-C ) :   0.8666
B(  5-C , 13-C ) :   0.8666 B(  6-H ,  7-C ) :   0.9146 B(  7-C , 11-C ) :   0.8666
B(  7-C , 13-C ) :   0.8666 B(  8-H ,  9-C ) :   0.9146 B(  9-C , 15-C ) :   0.8666
B( 10-H , 11-C ) :   0.9146 B( 11-C , 15-C ) :   0.8666 B( 12-H , 13-C ) :   0.9146
B( 13-C , 15-C ) :   0.8666 B( 14-H , 15-C ) :   0.9146

MP2 TOTAL ENERGY:     -308.875717318 Eh
FINAL SINGLE POINT ENERGY      -308.875717317587

DIPOLE MOMENT
-------------
                                X             Y             Z
Electronic contribution:     -0.00000       0.00000       0.00000
Nuclear contribution   :      0.00000      -0.00000      -0.00000
                        -----------------------------------------
Total Dipole Moment    :     -0.00000       0.00000       0.00000
                        -----------------------------------------
Magnitude (a.u.)       :      0.00000
Magnitude (Debye)      :      0.00000

                             ****ORCA TERMINATED NORMALLY****
TOTAL RUN TIME: 0 days 2 hours 47 minutes 5 seconds 856 msec
