                         Program Version 4.0.0 -  RELEASE  -
|  1> # ================================================================
|  2> # Orca input file for cubane B3LYP/def2-QZVP geometry optimization
|  3> # ================================================================
|  4> ! RHF B3LYP def2-QZVP TightSCF TightOPT UseSym
|  5> ! PAL4
|  6>
|  7> * xyz 0 1
|  8>   H      -1.423     -1.423     -1.423
|  9>   C      -0.788     -0.788     -0.788
| 10>   H      -1.423     -1.423      1.423
| 11>   C      -0.788     -0.788      0.788
| 12>   H      -1.423      1.423     -1.423
| 13>   C      -0.788      0.788     -0.788
| 14>   H       1.423     -1.423     -1.423
| 15>   C       0.788     -0.788     -0.788
| 16>   H      -1.423      1.423      1.423
| 17>   C      -0.788      0.788      0.788
| 18>   H       1.423     -1.423      1.423
| 19>   C       0.788     -0.788      0.788
| 20>   H       1.423      1.423     -1.423
| 21>   C       0.788      0.788     -0.788
| 22>   H       1.423      1.423      1.423
| 23>   C       0.788      0.788      0.788
| 24> *
| 25>
| 26>                          ****END OF INPUT****
 Total Charge           Charge          ....    0
 Multiplicity           Mult            ....    1
 Number of Electrons    NEL             ....   56
FINAL SINGLE POINT ENERGY      -309.377281235597
FINAL SINGLE POINT ENERGY      -309.378550127408
FINAL SINGLE POINT ENERGY      -309.378569007936
                    ***********************HURRAY********************

CARTESIAN COORDINATES (ANGSTROEM)
---------------------------------
  H     -1.411271    1.411271    1.411271
  C     -0.784145    0.784145    0.784145
  H     -1.411271   -1.411271    1.411271
  C     -0.784145   -0.784145    0.784145
  H      1.411271    1.411271    1.411271
  C      0.784145    0.784145    0.784145
  H     -1.411271    1.411271   -1.411271
  C     -0.784145    0.784145   -0.784145
  H      1.411271   -1.411271    1.411271
  C      0.784145   -0.784145    0.784145
  H     -1.411271   -1.411271   -1.411271
  C     -0.784145   -0.784145   -0.784145
  H      1.411271    1.411271   -1.411271
  C      0.784145    0.784145   -0.784145
  H      1.411271   -1.411271   -1.411271
  C      0.784145   -0.784145   -0.784145

 Multiplicity           Mult            ....    1
 Number of Electrons    NEL             ....   56
 Basis Dimension        Dim             ....  696

ORBITAL ENERGIES
----------------

  NO   OCC          E(Eh)            E(eV)    Irrep
   0   2.0000     -10.170655      -276.7576    1-Ag
   1   2.0000     -10.170478      -276.7528    1-B2u
   2   2.0000     -10.170478      -276.7528    1-B3u
   3   2.0000     -10.170478      -276.7528    1-B1u
   4   2.0000     -10.170299      -276.7479    1-B1g
   5   2.0000     -10.170299      -276.7479    1-B3g
   6   2.0000     -10.170299      -276.7479    1-B2g
   7   2.0000     -10.170117      -276.7430    1-Au
   8   2.0000      -0.941231       -25.6122    2-Ag
   9   2.0000      -0.722268       -19.6539    2-B2u
  10   2.0000      -0.722268       -19.6539    2-B3u
  11   2.0000      -0.722268       -19.6539    2-B1u
  12   2.0000      -0.557175       -15.1615    2-B1g
  13   2.0000      -0.557175       -15.1615    2-B3g
  14   2.0000      -0.557175       -15.1615    2-B2g
  15   2.0000      -0.531614       -14.4660    3-Ag
  16   2.0000      -0.462955       -12.5976    2-Au
  17   2.0000      -0.431448       -11.7403    4-Ag
  18   2.0000      -0.431448       -11.7403    5-Ag
  19   2.0000      -0.423549       -11.5254    3-B2u
  20   2.0000      -0.423549       -11.5254    3-B3u
  21   2.0000      -0.423549       -11.5254    3-B1u
  22   2.0000      -0.272991        -7.4285    4-B2u
  23   2.0000      -0.272991        -7.4285    4-B3u
  24   2.0000      -0.272991        -7.4285    4-B1u
  25   2.0000      -0.260656        -7.0928    3-B1g
  26   2.0000      -0.260656        -7.0928    3-B2g
  27   2.0000      -0.260656        -7.0928    3-B3g
  28   0.0000       0.025773         0.7013    6-Ag
  29   0.0000       0.028004         0.7620    5-B3u
  30   0.0000       0.028004         0.7620    5-B2u
  31   0.0000       0.028004         0.7620    5-B1u
  32   0.0000       0.074184         2.0186    4-B2g

MULLIKEN ATOMIC CHARGES
-----------------------
   0 H :    0.040121
   1 C :   -0.040122
   2 H :    0.040121
   3 C :   -0.040120
   4 H :    0.040121
   5 C :   -0.040120
   6 H :    0.040121
   7 C :   -0.040121
   8 H :    0.040121
   9 C :   -0.040121
  10 H :    0.040121
  11 C :   -0.040121
  12 H :    0.040121
  13 C :   -0.040122
  14 H :    0.040121
  15 C :   -0.040120
Sum of atomic charges:   -0.0000000

LOEWDIN ATOMIC CHARGES
----------------------
   0 H :   -0.088152
   1 C :    0.088152
   2 H :   -0.088152
   3 C :    0.088152
   4 H :   -0.088152
   5 C :    0.088152
   6 H :   -0.088152
   7 C :    0.088152
   8 H :   -0.088152
   9 C :    0.088152
  10 H :   -0.088152
  11 C :    0.088152
  12 H :   -0.088152
  13 C :    0.088152
  14 H :   -0.088152
  15 C :    0.088152

  Mayer bond orders larger than 0.1
B(  0-H ,  1-C ) :   0.9581 B(  1-C ,  3-C ) :   0.9636 B(  1-C ,  5-C ) :   0.9636
B(  1-C ,  7-C ) :   0.9636 B(  2-H ,  3-C ) :   0.9581 B(  3-C ,  9-C ) :   0.9636
B(  3-C , 11-C ) :   0.9636 B(  4-H ,  5-C ) :   0.9581 B(  5-C ,  9-C ) :   0.9636
B(  5-C , 13-C ) :   0.9636 B(  6-H ,  7-C ) :   0.9581 B(  7-C , 11-C ) :   0.9636
B(  7-C , 13-C ) :   0.9636 B(  8-H ,  9-C ) :   0.9581 B(  9-C , 15-C ) :   0.9636
B( 10-H , 11-C ) :   0.9581 B( 11-C , 15-C ) :   0.9636 B( 12-H , 13-C ) :   0.9581
B( 13-C , 15-C ) :   0.9636 B( 14-H , 15-C ) :   0.9581

FINAL SINGLE POINT ENERGY      -309.378569495632

DIPOLE MOMENT
-------------
                                X             Y             Z
Electronic contribution:      0.00000       0.00000       0.00000
Nuclear contribution   :     -0.00000      -0.00000      -0.00000
                        -----------------------------------------
Total Dipole Moment    :      0.00000       0.00000       0.00000
                        -----------------------------------------
Magnitude (a.u.)       :      0.00000
Magnitude (Debye)      :      0.00000

                             ****ORCA TERMINATED NORMALLY****
TOTAL RUN TIME: 0 days 1 hours 55 minutes 29 seconds 90 msec
