         Total DFT energy =     -309.585779061529
@ Step       Energy      Delta E   Gmax     Grms     Xrms     Xmax   Walltime
@ ---- ---------------- -------- -------- -------- -------- -------- --------
@    0    -309.58577906  0.0D+00  0.00060  0.00016  0.00000  0.00000   4572.7
         Total DFT energy =     -309.585787379580

 Vector   84  Occ=0.000000D+00  E= 4.535481D-01  Symmetry=t2g

 Vector   85  Occ=0.000000D+00  E= 5.335940D-01  Symmetry=eg

         Total DFT energy =     -309.585788470514

                       DFT Final Molecular Orbital Analysis
                       ------------------------------------

 Vector    8  Occ=2.000000D+00  E=-1.017247D+01  Symmetry=a2u

 Vector    9  Occ=2.000000D+00  E=-9.439266D-01  Symmetry=a1g

 Vector   10  Occ=2.000000D+00  E=-7.254525D-01  Symmetry=t1u

 Vector   11  Occ=2.000000D+00  E=-7.254525D-01  Symmetry=t1u

 Vector   12  Occ=2.000000D+00  E=-7.254525D-01  Symmetry=t1u

 Vector   13  Occ=2.000000D+00  E=-5.601976D-01  Symmetry=t2g

 Vector   14  Occ=2.000000D+00  E=-5.601976D-01  Symmetry=t2g

 Vector   15  Occ=2.000000D+00  E=-5.601976D-01  Symmetry=t2g

 Vector   16  Occ=2.000000D+00  E=-5.342320D-01  Symmetry=a1g

 Vector   17  Occ=2.000000D+00  E=-4.658893D-01  Symmetry=a2u

 Vector   18  Occ=2.000000D+00  E=-4.344369D-01  Symmetry=eg

 Vector   19  Occ=2.000000D+00  E=-4.344369D-01  Symmetry=eg

 Vector   20  Occ=2.000000D+00  E=-4.266243D-01  Symmetry=t1u

 Vector   21  Occ=2.000000D+00  E=-4.266243D-01  Symmetry=t1u

 Vector   22  Occ=2.000000D+00  E=-4.266243D-01  Symmetry=t1u

 Vector   23  Occ=2.000000D+00  E=-2.760384D-01  Symmetry=t2u

 Vector   24  Occ=2.000000D+00  E=-2.760384D-01  Symmetry=t2u

 Vector   25  Occ=2.000000D+00  E=-2.760384D-01  Symmetry=t2u

 Vector   26  Occ=2.000000D+00  E=-2.637411D-01  Symmetry=t2g

 Vector   27  Occ=2.000000D+00  E=-2.637411D-01  Symmetry=t2g

 Vector   28  Occ=2.000000D+00  E=-2.637411D-01  Symmetry=t2g

 Vector   29  Occ=0.000000D+00  E= 1.988349D-02  Symmetry=a1g

 Vector   30  Occ=0.000000D+00  E= 2.237443D-02  Symmetry=t1u

 Vector   31  Occ=0.000000D+00  E= 2.237443D-02  Symmetry=t1u

 Vector   32  Occ=0.000000D+00  E= 2.237443D-02  Symmetry=t1u

 Vector   33  Occ=0.000000D+00  E= 7.052807D-02  Symmetry=t2g

 Vector   34  Occ=0.000000D+00  E= 7.052807D-02  Symmetry=t2g

 Vector   35  Occ=0.000000D+00  E= 7.052807D-02  Symmetry=t2g

 Vector   36  Occ=0.000000D+00  E= 7.971154D-02  Symmetry=t1u

 Vector   37  Occ=0.000000D+00  E= 7.971154D-02  Symmetry=t1u

 Vector   38  Occ=0.000000D+00  E= 7.971154D-02  Symmetry=t1u

 Vector   39  Occ=0.000000D+00  E= 1.021415D-01  Symmetry=a2u

 Vector   40  Occ=0.000000D+00  E= 1.108487D-01  Symmetry=eg

 Vector   41  Occ=0.000000D+00  E= 1.108487D-01  Symmetry=eg

 Vector   42  Occ=0.000000D+00  E= 1.642600D-01  Symmetry=t1g

 Vector   43  Occ=0.000000D+00  E= 1.642600D-01  Symmetry=t1g

 Vector   44  Occ=0.000000D+00  E= 1.642600D-01  Symmetry=t1g

 Vector   45  Occ=0.000000D+00  E= 1.707843D-01  Symmetry=t2u

 Vector   46  Occ=0.000000D+00  E= 1.707843D-01  Symmetry=t2u

 Vector   47  Occ=0.000000D+00  E= 1.707843D-01  Symmetry=t2u

 Vector   48  Occ=0.000000D+00  E= 1.722818D-01  Symmetry=a1g

 Vector   49  Occ=0.000000D+00  E= 1.864151D-01  Symmetry=t2g

 Vector   50  Occ=0.000000D+00  E= 1.864151D-01  Symmetry=t2g

 Vector   51  Occ=0.000000D+00  E= 1.864151D-01  Symmetry=t2g

 Vector   52  Occ=0.000000D+00  E= 2.014497D-01  Symmetry=t1u

 Vector   53  Occ=0.000000D+00  E= 2.014497D-01  Symmetry=t1u

 Vector   54  Occ=0.000000D+00  E= 2.014497D-01  Symmetry=t1u

 Vector   55  Occ=0.000000D+00  E= 2.476233D-01  Symmetry=a1g

 Vector   56  Occ=0.000000D+00  E= 2.740761D-01  Symmetry=eu

 Vector   57  Occ=0.000000D+00  E= 2.740761D-01  Symmetry=eu

 Vector   58  Occ=0.000000D+00  E= 3.012344D-01  Symmetry=t1u

 Vector   59  Occ=0.000000D+00  E= 3.012344D-01  Symmetry=t1u

 Vector   60  Occ=0.000000D+00  E= 3.012344D-01  Symmetry=t1u

 Vector   61  Occ=0.000000D+00  E= 3.060223D-01  Symmetry=t1g

 Vector   62  Occ=0.000000D+00  E= 3.060223D-01  Symmetry=t1g

 Vector   63  Occ=0.000000D+00  E= 3.060223D-01  Symmetry=t1g

 Vector   64  Occ=0.000000D+00  E= 3.098721D-01  Symmetry=t2g

 Vector   65  Occ=0.000000D+00  E= 3.098721D-01  Symmetry=t2g

 Vector   66  Occ=0.000000D+00  E= 3.098721D-01  Symmetry=t2g

 Vector   67  Occ=0.000000D+00  E= 3.185864D-01  Symmetry=a2u

 Vector   68  Occ=0.000000D+00  E= 3.312533D-01  Symmetry=t1u

 Vector   69  Occ=0.000000D+00  E= 3.312533D-01  Symmetry=t1u

 Vector   70  Occ=0.000000D+00  E= 3.312533D-01  Symmetry=t1u

 Vector   71  Occ=0.000000D+00  E= 3.634747D-01  Symmetry=t2g

 Vector   72  Occ=0.000000D+00  E= 3.634747D-01  Symmetry=t2g

 Vector   73  Occ=0.000000D+00  E= 3.634747D-01  Symmetry=t2g

 Vector   74  Occ=0.000000D+00  E= 3.909763D-01  Symmetry=eu

 Vector   75  Occ=0.000000D+00  E= 3.909763D-01  Symmetry=eu

 Vector   76  Occ=0.000000D+00  E= 4.125044D-01  Symmetry=eg

 Vector   77  Occ=0.000000D+00  E= 4.125044D-01  Symmetry=eg

 Vector   78  Occ=0.000000D+00  E= 4.423405D-01  Symmetry=t1u

 Vector   79  Occ=0.000000D+00  E= 4.423405D-01  Symmetry=t1u

 Vector   80  Occ=0.000000D+00  E= 4.423405D-01  Symmetry=t1u

 Vector   81  Occ=0.000000D+00  E= 4.505542D-01  Symmetry=a1g

 Vector   82  Occ=0.000000D+00  E= 4.535854D-01  Symmetry=t2g

 Vector   83  Occ=0.000000D+00  E= 4.535854D-01  Symmetry=t2g

 Vector   84  Occ=0.000000D+00  E= 4.535854D-01  Symmetry=t2g

 Vector   85  Occ=0.000000D+00  E= 5.335790D-01  Symmetry=eg

     Multipole analysis of the density
     ---------------------------------

     L   x y z        total         alpha         beta         nuclear
     -   - - -        -----         -----         ----         -------
     0   0 0 0      0.000000    -28.000000    -28.000000     56.000000

     1   1 0 0      0.000000      0.000000      0.000000      0.000000
     1   0 1 0      0.000000      0.000000      0.000000      0.000000
     1   0 0 1     -0.000000     -0.000000     -0.000000      0.000000

     2   2 0 0    -35.018992    -98.575240    -98.575240    162.131488
     2   1 1 0      0.000000      0.000000      0.000000      0.000000
     2   1 0 1     -0.000000     -0.000000     -0.000000      0.000000
     2   0 2 0    -35.018992    -98.575240    -98.575240    162.131488
     2   0 1 1     -0.000000     -0.000000     -0.000000      0.000000

@    1    -309.58578847 -9.4D-06  0.00002  0.00001  0.00105  0.00119   8218.6
@    1    -309.58578847 -9.4D-06  0.00002  0.00001  0.00105  0.00119   8218.6

 Output coordinates in angstroms (scale by  1.889725989 to convert to a.u.)

  No.       Tag          Charge          X              Y              Z
 ---- ---------------- ---------- -------------- -------------- --------------
    1 H                    1.0000     1.41063149     1.41063149     1.41063149
    2 H                    1.0000    -1.41063149    -1.41063149     1.41063149
    3 H                    1.0000    -1.41063149     1.41063149    -1.41063149
    4 H                    1.0000     1.41063149    -1.41063149    -1.41063149
    5 H                    1.0000     1.41063149     1.41063149    -1.41063149
    6 H                    1.0000    -1.41063149    -1.41063149    -1.41063149
    7 H                    1.0000     1.41063149    -1.41063149     1.41063149
    8 H                    1.0000    -1.41063149     1.41063149     1.41063149
    9 C                    6.0000     0.78371973     0.78371973     0.78371973
   10 C                    6.0000    -0.78371973    -0.78371973     0.78371973
   11 C                    6.0000    -0.78371973     0.78371973    -0.78371973
   12 C                    6.0000     0.78371973    -0.78371973    -0.78371973
   13 C                    6.0000     0.78371973     0.78371973    -0.78371973
   14 C                    6.0000    -0.78371973    -0.78371973    -0.78371973
   15 C                    6.0000     0.78371973    -0.78371973     0.78371973
   16 C                    6.0000    -0.78371973     0.78371973     0.78371973

 Total times  cpu:     3985.5s     wall:     8218.7s
