         Total SCF energy =   -307.380227085568
          Total MP2 energy          -308.408613652813
@ Step       Energy      Delta E   Gmax     Grms     Xrms     Xmax   Walltime
@ ---- ---------------- -------- -------- -------- -------- -------- --------
@    0    -308.40861365  0.0D+00  0.00301  0.00069  0.00000  0.00000    205.7
         Total SCF energy =   -307.380707949612
          Total MP2 energy          -308.408750371201
         Total SCF energy =   -307.380802999905
          Total MP2 energy          -308.408756303283
@    1    -308.40875630 -1.4D-04  0.00042  0.00008  0.00607  0.01367    478.3
         Total SCF energy =   -307.380733587756
          Total MP2 energy          -308.408762556252
         Total SCF energy =   -307.380631996508
          Total MP2 energy          -308.408765724708
@    2    -308.40876572 -9.4D-06  0.00056  0.00008  0.00303  0.00965    763.0
         Total SCF energy =   -307.380636652337
          Total MP2 energy          -308.408769872891
         Total SCF energy =   -307.380640844884
          Total MP2 energy          -308.408773455971
@    3    -308.40877346 -7.7D-06  0.00054  0.00008  0.00304  0.01065   1046.8
         Total SCF energy =   -307.380650748061
          Total MP2 energy          -308.408777758948
         Total SCF energy =   -307.380667476220
          Total MP2 energy          -308.408782023681
@    4    -308.40878202 -8.6D-06  0.00033  0.00005  0.00372  0.01001   1336.3
         Total SCF energy =   -307.380669640233
          Total MP2 energy          -308.408784388121
         Total SCF energy =   -307.380671354669
          Total MP2 energy          -308.408786808967
@    5    -308.40878681 -4.8D-06  0.00029  0.00005  0.00297  0.01095   1625.5
         Total SCF energy =   -307.380674927616
          Total MP2 energy          -308.408789263262
         Total SCF energy =   -307.380682921198
          Total MP2 energy          -308.408794246987
@    6    -308.40879425 -7.4D-06  0.00020  0.00004  0.00384  0.01584   1905.7
         Total SCF energy =   -307.380694475910
          Total MP2 energy          -308.408799100642
         Total SCF energy =   -307.380698062878
          Total MP2 energy          -308.408799700266
@    7    -308.40879970 -5.5D-06  0.00015  0.00004  0.00660  0.02707   2190.7
         Total SCF energy =   -307.380712408988
          Total MP2 energy          -308.408801707105
         Total SCF energy =   -307.380734932221
          Total MP2 energy          -308.408803087150
@    8    -308.40880309 -3.4D-06  0.00006  0.00002  0.00142  0.00383   2467.6
         Total SCF energy =   -307.380734417167
          Total MP2 energy          -308.408803358872
         Total SCF energy =   -307.380733984781

 Vector   46  Occ=0.000000D+00  E= 4.880400D-01  Symmetry=b2

 Vector   47  Occ=0.000000D+00  E= 5.267322D-01  Symmetry=a2

          Total MP2 energy          -308.408803392013
@    9    -308.40880339 -3.0D-07  0.00002  0.00001  0.00113  0.00458   2734.5
         Total SCF energy =   -307.380731293804

 Vector    9  Occ=1.000000D+00  E=-1.229246D+00  Symmetry=a1

 Vector   10  Occ=1.000000D+00  E=-1.061196D+00  Symmetry=b2

 Vector   11  Occ=1.000000D+00  E=-9.672717D-01  Symmetry=b1

 Vector   12  Occ=1.000000D+00  E=-9.487964D-01  Symmetry=a1

 Vector   13  Occ=1.000000D+00  E=-8.057910D-01  Symmetry=b2

 Vector   14  Occ=1.000000D+00  E=-7.880760D-01  Symmetry=a2

 Vector   15  Occ=1.000000D+00  E=-7.777079D-01  Symmetry=a1

 Vector   16  Occ=1.000000D+00  E=-7.068764D-01  Symmetry=a1

 Vector   17  Occ=1.000000D+00  E=-6.495880D-01  Symmetry=b2

 Vector   18  Occ=1.000000D+00  E=-6.084049D-01  Symmetry=b2

 Vector   19  Occ=1.000000D+00  E=-5.948473D-01  Symmetry=a1

 Vector   20  Occ=1.000000D+00  E=-5.797223D-01  Symmetry=a1

 Vector   21  Occ=1.000000D+00  E=-5.757596D-01  Symmetry=b1

 Vector   22  Occ=1.000000D+00  E=-5.240614D-01  Symmetry=b1

 Vector   23  Occ=1.000000D+00  E=-4.539332D-01  Symmetry=b2

 Vector   24  Occ=1.000000D+00  E=-4.475697D-01  Symmetry=b1

 Vector   25  Occ=1.000000D+00  E=-4.463511D-01  Symmetry=a2

 Vector   26  Occ=1.000000D+00  E=-4.041570D-01  Symmetry=a1

 Vector   27  Occ=1.000000D+00  E=-3.807799D-01  Symmetry=a2

 Vector   28  Occ=1.000000D+00  E=-3.267897D-01  Symmetry=b2

 Vector   29  Occ=1.000000D+00  E=-3.190946D-01  Symmetry=a1

 Vector   30  Occ=0.000000D+00  E= 1.762845D-01  Symmetry=a1

 Vector   31  Occ=0.000000D+00  E= 2.095584D-01  Symmetry=b1

 Vector   32  Occ=0.000000D+00  E= 2.110766D-01  Symmetry=a1

 Vector   33  Occ=0.000000D+00  E= 2.171919D-01  Symmetry=b2

 Vector   34  Occ=0.000000D+00  E= 2.448195D-01  Symmetry=b2

 Vector   35  Occ=0.000000D+00  E= 2.528533D-01  Symmetry=a1

 Vector   36  Occ=0.000000D+00  E= 2.536729D-01  Symmetry=a2

 Vector   37  Occ=0.000000D+00  E= 2.686669D-01  Symmetry=a1

 Vector   38  Occ=0.000000D+00  E= 2.720922D-01  Symmetry=b2

 Vector   39  Occ=0.000000D+00  E= 2.737842D-01  Symmetry=b1

 Vector   40  Occ=0.000000D+00  E= 3.048087D-01  Symmetry=b2

 Vector   41  Occ=0.000000D+00  E= 3.698418D-01  Symmetry=b1

 Vector   42  Occ=0.000000D+00  E= 3.736502D-01  Symmetry=a2

 Vector   43  Occ=0.000000D+00  E= 3.993004D-01  Symmetry=b2

 Vector   44  Occ=0.000000D+00  E= 4.134327D-01  Symmetry=a2

 Vector   45  Occ=0.000000D+00  E= 4.347909D-01  Symmetry=a1

 Vector   46  Occ=0.000000D+00  E= 4.811231D-01  Symmetry=b2

 Vector   47  Occ=0.000000D+00  E= 5.160699D-01  Symmetry=a2

 Vector    9  Occ=1.000000D+00  E=-1.211968D+00  Symmetry=a1

 Vector   10  Occ=1.000000D+00  E=-1.022468D+00  Symmetry=b2

 Vector   11  Occ=1.000000D+00  E=-9.641496D-01  Symmetry=b1

 Vector   12  Occ=1.000000D+00  E=-9.051171D-01  Symmetry=a1

 Vector   13  Occ=1.000000D+00  E=-7.858141D-01  Symmetry=a2

 Vector   14  Occ=1.000000D+00  E=-7.621852D-01  Symmetry=b2

 Vector   15  Occ=1.000000D+00  E=-7.463104D-01  Symmetry=a1

 Vector   16  Occ=1.000000D+00  E=-7.015418D-01  Symmetry=a1

 Vector   17  Occ=1.000000D+00  E=-6.332743D-01  Symmetry=b2

 Vector   18  Occ=1.000000D+00  E=-6.004193D-01  Symmetry=b2

 Vector   19  Occ=1.000000D+00  E=-5.775933D-01  Symmetry=a1

 Vector   20  Occ=1.000000D+00  E=-5.695968D-01  Symmetry=b1

 Vector   21  Occ=1.000000D+00  E=-5.158728D-01  Symmetry=b1

 Vector   22  Occ=1.000000D+00  E=-5.134319D-01  Symmetry=a1

 Vector   23  Occ=1.000000D+00  E=-4.368432D-01  Symmetry=b1

 Vector   24  Occ=1.000000D+00  E=-4.302006D-01  Symmetry=a2

 Vector   25  Occ=1.000000D+00  E=-4.119957D-01  Symmetry=b2

 Vector   26  Occ=1.000000D+00  E=-3.952492D-01  Symmetry=a1

 Vector   27  Occ=1.000000D+00  E=-3.747964D-01  Symmetry=a2

 Vector   28  Occ=0.000000D+00  E= 1.462192D-01  Symmetry=a1

 Vector   29  Occ=0.000000D+00  E= 1.474040D-01  Symmetry=b2

 Vector   30  Occ=0.000000D+00  E= 1.813080D-01  Symmetry=a1

 Vector   31  Occ=0.000000D+00  E= 2.120018D-01  Symmetry=b1

 Vector   32  Occ=0.000000D+00  E= 2.230704D-01  Symmetry=a1

 Vector   33  Occ=0.000000D+00  E= 2.253355D-01  Symmetry=b2

 Vector   34  Occ=0.000000D+00  E= 2.553654D-01  Symmetry=a2

 Vector   35  Occ=0.000000D+00  E= 2.574131D-01  Symmetry=b2

 Vector   36  Occ=0.000000D+00  E= 2.585889D-01  Symmetry=a1

 Vector   37  Occ=0.000000D+00  E= 2.752235D-01  Symmetry=b1

 Vector   38  Occ=0.000000D+00  E= 2.758574D-01  Symmetry=b2

 Vector   39  Occ=0.000000D+00  E= 2.779366D-01  Symmetry=a1

 Vector   40  Occ=0.000000D+00  E= 3.411178D-01  Symmetry=b2

 Vector   41  Occ=0.000000D+00  E= 3.814748D-01  Symmetry=a2

 Vector   42  Occ=0.000000D+00  E= 3.846351D-01  Symmetry=b1

 Vector   43  Occ=0.000000D+00  E= 4.180329D-01  Symmetry=a2

 Vector   44  Occ=0.000000D+00  E= 4.230061D-01  Symmetry=b2

 Vector   45  Occ=0.000000D+00  E= 4.532548D-01  Symmetry=a1

 Vector   46  Occ=0.000000D+00  E= 4.880588D-01  Symmetry=b2

 Vector   47  Occ=0.000000D+00  E= 5.267294D-01  Symmetry=a2

       Multipole analysis of the density wrt the origin
       ------------------------------------------------

     L   x y z        total         alpha         beta         nuclear
     -   - - -        -----         -----         ----         -------
     0   0 0 0      0.000000    -29.000000    -27.000000     56.000000

     1   1 0 0     -0.000000     -0.000000     -0.000000      0.000000
     1   0 1 0      0.000000      0.000000      0.000000     -0.000000
     1   0 0 1      0.391113      2.462038     -1.612602     -0.458322

     2   2 0 0    -34.487087    -98.215417    -97.029813    160.758143
     2   1 1 0      0.000000      0.000000      0.000000      0.000000
     2   1 0 1      0.000000      0.000000      0.000000      0.000000
     2   0 2 0    -34.030878   -142.433911   -130.011746    238.414779
     2   0 1 1      0.000000      0.000000     -0.000000      0.000000

          Total MP2 energy          -308.408803451323
         Total SCF energy =   -307.380731293804
          Total MP2 energy          -308.408803451323
@   10    -308.40880345 -5.9D-08  0.00001  0.00000  0.00022  0.00078   2960.8
@   10    -308.40880345 -5.9D-08  0.00001  0.00000  0.00022  0.00078   2960.8

 Output coordinates in angstroms (scale by  1.889725989 to convert to a.u.)

  No.       Tag          Charge          X              Y              Z
 ---- ---------------- ---------- -------------- -------------- --------------
    1 H                    1.0000     2.06638324     1.27556924    -0.01483950
    2 C                    6.0000     1.07890980     0.79698820    -0.09121108
    3 H                    1.0000     2.06638324    -1.27556924    -0.01483950
    4 C                    6.0000     1.07890980    -0.79698820    -0.09121108
    5 H                    1.0000     0.00000000    -2.38154345    -1.37995552
    6 C                    6.0000     0.00000000    -1.35499242    -0.99656385
    7 H                    1.0000     0.00000000     2.38154345    -1.37995552
    8 C                    6.0000     0.00000000     1.35499242    -0.99656385
    9 H                    1.0000     0.00000000    -1.47480429     1.92529715
   10 C                    6.0000     0.00000000    -0.77912494     1.07283110
   11 H                    1.0000     0.00000000     1.47480429     1.92529715
   12 C                    6.0000     0.00000000     0.77912494     1.07283110
   13 H                    1.0000    -2.06638324     1.27556924    -0.01483950
   14 C                    6.0000    -1.07890980     0.79698820    -0.09121108
   15 H                    1.0000    -2.06638324    -1.27556924    -0.01483950
   16 C                    6.0000    -1.07890980    -0.79698820    -0.09121108

 Total times  cpu:     3557.6s     wall:     2960.8s
