 Q-Chem 4.4, Q-Chem, Inc., Pleasanton, CA (2016)
 Q-Chem 4.4.1 for Intel X86 Linux

User input:
--------------------------------------------------------------
$comment0
$end

$rem
SYMMETRY              True
BASIS                 cc-pVDZ
METHOD                CCSD
N_FROZEN_CORE         FC
SCF_CONVERGENCE       8
JOBTYPE               opt
$end

$molecule
0 1
H                     1.42503470     1.42503470     1.42503472
H                    -1.42503470    -1.42503470     1.42503472
H                    -1.42503470     1.42503470    -1.42503472
H                     1.42503470    -1.42503470    -1.42503472
H                    -1.42503470    -1.42503470    -1.42503472
H                     1.42503470     1.42503470    -1.42503472
H                     1.42503470    -1.42503470     1.42503472
H                    -1.42503470     1.42503470     1.42503472
C                     0.78961438     0.78961438     0.78961439
C                    -0.78961438    -0.78961438     0.78961439
C                    -0.78961438     0.78961438    -0.78961439
C                     0.78961438    -0.78961438    -0.78961439
C                    -0.78961438    -0.78961438    -0.78961439
C                     0.78961438     0.78961438    -0.78961439
C                     0.78961438    -0.78961438     0.78961439
C                    -0.78961438     0.78961438     0.78961439
$end
--------------------------------------------------------------

             Standard Nuclear Orientation (Angstroms)
    I     Atom           X                Y                Z
 ----------------------------------------------------------------
    1      H       1.4250347200     1.4250347000     1.4250347000
    2      H       1.4250347200    -1.4250347000    -1.4250347000
    3      H      -1.4250347200    -1.4250347000     1.4250347000
    4      H      -1.4250347200     1.4250347000    -1.4250347000
    5      H      -1.4250347200    -1.4250347000    -1.4250347000
    6      H      -1.4250347200     1.4250347000     1.4250347000
    7      H       1.4250347200     1.4250347000    -1.4250347000
    8      H       1.4250347200    -1.4250347000     1.4250347000
    9      C       0.7896143900     0.7896143800     0.7896143800
   10      C       0.7896143900    -0.7896143800    -0.7896143800
   11      C      -0.7896143900    -0.7896143800     0.7896143800
   12      C      -0.7896143900     0.7896143800    -0.7896143800
   13      C      -0.7896143900    -0.7896143800    -0.7896143800
   14      C      -0.7896143900     0.7896143800     0.7896143800
   15      C       0.7896143900     0.7896143800    -0.7896143800
   16      C       0.7896143900    -0.7896143800     0.7896143800
 ----------------------------------------------------------------

   13    -307.4123874138      7.45E-09 Convergence criterion met
 Total energy in the final basis set = -307.4123874138
 CCSD total energy           = -308.54310640
 Final energy is   -308.543106397933
 **  OPTIMIZATION CONVERGED  **

             Orbital Energies (a.u.) and Symmetries
 --------------------------------------------------------------

 Alpha MOs, Restricted
 -- Occupied --
-11.230 -11.229 -11.229 -11.229 -11.229 -11.230 -11.230 -11.230
  1 Ag    1 B1g   1 B2g   1 B3g   1 Au    1 B1u   1 B2u   1 B3u
 -1.238  -0.704  -0.574  -0.574  -0.766  -0.384  -0.766  -0.384
  2 Ag    3 Ag    4 Ag    5 Ag    2 B1g   3 B1g   2 B2g   3 B2g
 -0.766  -0.384  -0.639  -0.975  -0.576  -0.389  -0.975  -0.576
  2 B3g   3 B3g   2 Au    2 B1u   3 B1u   4 B1u   2 B2u   3 B2u
 -0.389  -0.975  -0.576  -0.389
  4 B2u   2 B3u   3 B3u   4 B3u

 Beta MOs, Restricted
 -- Occupied --
-11.230 -11.229 -11.229 -11.229 -11.229 -11.230 -11.230 -11.230
  1 Ag    1 B1g   1 B2g   1 B3g   1 Au    1 B1u   1 B2u   1 B3u
 -1.238  -0.704  -0.574  -0.574  -0.766  -0.384  -0.766  -0.384
  2 Ag    3 Ag    4 Ag    5 Ag    2 B1g   3 B1g   2 B2g   3 B2g
 -0.766  -0.384  -0.639  -0.975  -0.576  -0.389  -0.975  -0.576
  2 B3g   3 B3g   2 Au    2 B1u   3 B1u   4 B1u   2 B2u   3 B2u
 -0.389  -0.975  -0.576  -0.389
  4 B2u   2 B3u   3 B3u   4 B3u

          Ground-State Mulliken Net Atomic Charges

     Atom                 Charge (a.u.)
  ----------------------------------------
      1 H                    -0.005187
      2 H                    -0.005187
      3 H                    -0.005187
      4 H                    -0.005187
      5 H                    -0.005187
      6 H                    -0.005187
      7 H                    -0.005187
      8 H                    -0.005187
      9 C                     0.005187
     10 C                     0.005187
     11 C                     0.005187
     12 C                     0.005187
     13 C                     0.005187
     14 C                     0.005187
     15 C                     0.005187
     16 C                     0.005187
  ----------------------------------------
  Sum of atomic charges =     0.000000

                    Cartesian Multipole Moments
 -----------------------------------------------------------------
    Charge (ESU x 10^10)
                 0.0000
    Dipole Moment (Debye)
         X       0.0000      Y       0.0000      Z       0.0000
       Tot       0.0000
    Quadrupole Moments (Debye-Ang)
        XX     -47.7308     XY       0.0000     YY     -47.7308
        XZ       0.0000     YZ       0.0000     ZZ     -47.7308

 Total job time:  388.90s(wall), 715.06s(cpu)
        *  Thank you very much for using Q-Chem.  Have a nice day.  *
