                         Program Version 3.0.3 - RELEASE   -
|  1> # ================================================================
|  2> # Orca input file for cubane
|  3> # ================================================================
|  4> ! DLPNO-CCSD(T) cc-pVTZ cc-pVTZ/C TightSCF TightOpt
|  5> ! NumGrad
|  6> ! PAL4
|  7>
|  8> %maxcore 2000
|  9>
| 10> * xyz 0 1
| 11>  H                     1.4154     1.4154     1.4154
| 12>  H                    -1.4154    -1.4154     1.4154
| 13>  H                    -1.4154     1.4154    -1.4154
| 14>  H                     1.4154    -1.4154    -1.4154
| 15>  H                    -1.4154    -1.4154    -1.4154
| 16>  H                     1.4154     1.4154    -1.4154
| 17>  H                     1.4154    -1.4154     1.4154
| 18>  H                    -1.4154     1.4154     1.4154
| 19>  C                     0.7874     0.7874     0.7874
| 20>  C                    -0.7874    -0.7874     0.7874
| 21>  C                    -0.7874     0.7874    -0.7874
| 22>  C                     0.7874    -0.7874    -0.7874
| 23>  C                    -0.7874    -0.7874    -0.7874
| 24>  C                     0.7874     0.7874    -0.7874
| 25>  C                     0.7874    -0.7874     0.7874
| 26>  C                    -0.7874     0.7874     0.7874
| 27> *
| 28>
| 29>                          ****END OF INPUT****
 Total Charge           Charge          ....    0
 Multiplicity           Mult            ....    1
 Number of Electrons    NEL             ....   56
E(0)                                       ...   -307.483516576
E(0)                                       ...   -307.483516576
E(CORR)(strong-pairs)                      ...     -1.328141646
E(CORR)(weak-pairs)                        ...     -0.004015795
E(CORR)(corrected)                         ...     -1.332157441
E(TOT)                                     ...   -308.815674017
FINAL SINGLE POINT ENERGY      -308.878509185921
FINAL SINGLE POINT ENERGY      -308.878528488663
FINAL SINGLE POINT ENERGY      -308.878529171931
                    ***********************HURRAY********************

CARTESIAN COORDINATES (ANGSTROEM)
---------------------------------
  H      1.414199    1.414203    1.414199
  H     -1.414201   -1.414201    1.414201
  H     -1.414201    1.414201   -1.414200
  H      1.414201   -1.414201   -1.414200
  H     -1.414201   -1.414200   -1.414201
  H      1.414201    1.414201   -1.414200
  H      1.414201   -1.414201    1.414201
  H     -1.414200    1.414200    1.414201
  C      0.786490    0.786490    0.786490
  C     -0.786490   -0.786490    0.786490
  C     -0.786490    0.786490   -0.786490
  C      0.786490   -0.786491   -0.786490
  C     -0.786490   -0.786490   -0.786490
  C      0.786490    0.786490   -0.786490
  C      0.786490   -0.786491    0.786490
  C     -0.786490    0.786490    0.786490

 Multiplicity           Mult            ....    1
 Number of Electrons    NEL             ....   56
 Basis Dimension        Dim             ....  352

ORBITAL ENERGIES
----------------

  NO   OCC          E(Eh)            E(eV)
   0   2.0000     -11.223268      -305.4006
   1   2.0000     -11.222786      -305.3875
   2   2.0000     -11.222786      -305.3875
   3   2.0000     -11.222786      -305.3875
   4   2.0000     -11.222291      -305.3741
   5   2.0000     -11.222291      -305.3741
   6   2.0000     -11.222291      -305.3741
   7   2.0000     -11.221776      -305.3600
   8   2.0000      -1.238133       -33.6913
   9   2.0000      -0.975510       -26.5450
  10   2.0000      -0.975510       -26.5450
  11   2.0000      -0.975510       -26.5450
  12   2.0000      -0.767369       -20.8812
  13   2.0000      -0.767369       -20.8812
  14   2.0000      -0.767369       -20.8812
  15   2.0000      -0.708339       -19.2749
  16   2.0000      -0.642308       -17.4781
  17   2.0000      -0.578949       -15.7540
  18   2.0000      -0.578949       -15.7540
  19   2.0000      -0.578949       -15.7540
  20   2.0000      -0.576019       -15.6743
  21   2.0000      -0.576019       -15.6743
  22   2.0000      -0.389049       -10.5866
  23   2.0000      -0.389049       -10.5866
  24   2.0000      -0.389049       -10.5866
  25   2.0000      -0.383281       -10.4296
  26   2.0000      -0.383281       -10.4296
  27   2.0000      -0.383281       -10.4296
  28   0.0000       0.145590         3.9617
  29   0.0000       0.162332         4.4173
  30   0.0000       0.162332         4.4173
  31   0.0000       0.162332         4.4173
  32   0.0000       0.199434         5.4269

E(0)                                       ...   -307.483927788
E(CORR)(strong-pairs)                      ...     -1.327862351
E(CORR)(weak-pairs)                        ...     -0.004020756
E(CORR)(corrected)                         ...     -1.331883107
E(TOT)                                     ...   -308.815810895
E(CCSD(T))                                 ...   -308.878529182

MULLIKEN ATOMIC CHARGES
-----------------------
   0 H :    0.157833
   1 H :    0.157833
   2 H :    0.157833
   3 H :    0.157833
   4 H :    0.157833
   5 H :    0.157833
   6 H :    0.157833
   7 H :    0.157833
   8 C :   -0.157833
   9 C :   -0.157833
  10 C :   -0.157833
  11 C :   -0.157833
  12 C :   -0.157833
  13 C :   -0.157834
  14 C :   -0.157834
  15 C :   -0.157833
Sum of atomic charges:   -0.0000000

LOEWDIN ATOMIC CHARGES
----------------------
   0 H :   -0.058271
   1 H :   -0.058271
   2 H :   -0.058271
   3 H :   -0.058271
   4 H :   -0.058271
   5 H :   -0.058271
   6 H :   -0.058271
   7 H :   -0.058271
   8 C :    0.058271
   9 C :    0.058271
  10 C :    0.058271
  11 C :    0.058271
  12 C :    0.058271
  13 C :    0.058271
  14 C :    0.058271
  15 C :    0.058271

  Mayer bond orders larger than 0.1
B(  0-H ,  8-C ) :   0.8957 B(  1-H ,  9-C ) :   0.8957 B(  2-H , 10-C ) :   0.8957
B(  3-H , 11-C ) :   0.8957 B(  4-H , 12-C ) :   0.8957 B(  5-H , 13-C ) :   0.8957
B(  6-H , 14-C ) :   0.8957 B(  7-H , 15-C ) :   0.8957 B(  8-C , 13-C ) :   0.8749
B(  8-C , 14-C ) :   0.8749 B(  8-C , 15-C ) :   0.8749 B(  9-C , 12-C ) :   0.8749
B(  9-C , 14-C ) :   0.8749 B(  9-C , 15-C ) :   0.8749 B( 10-C , 12-C ) :   0.8749
B( 10-C , 13-C ) :   0.8749 B( 10-C , 15-C ) :   0.8749 B( 11-C , 12-C ) :   0.8749
B( 11-C , 13-C ) :   0.8749 B( 11-C , 14-C ) :   0.8749

FINAL SINGLE POINT ENERGY      -308.878529182021

DIPOLE MOMENT
-------------
                                X             Y             Z
Electronic contribution:      0.00000      -0.00000      -0.00000
Nuclear contribution   :     -0.00000       0.00000       0.00000
                        -----------------------------------------
Total Dipole Moment    :     -0.00000       0.00000       0.00000
                        -----------------------------------------
Magnitude (a.u.)       :      0.00000
Magnitude (Debye)      :      0.00000

                             ****ORCA TERMINATED NORMALLY****
TOTAL RUN TIME: 2 days 15 hours 40 minutes 0 seconds 903 msec
