         Total SCF energy =   -307.410827941865
 CCSD total energy / hartree       =      -308.542936893347758
 CCSD(T) total energy / hartree       =      -308.589667568906862
         Total SCF energy =   -307.410644846183
 CCSD total energy / hartree       =      -308.542903385094974
 CCSD(T) total energy / hartree       =      -308.589658030947703
         Total SCF energy =   -307.410996343568
 CCSD total energy / hartree       =      -308.542956332362962
 CCSD(T) total energy / hartree       =      -308.589663185812640
         Total SCF energy =   -307.410644846177
 CCSD total energy / hartree       =      -308.542903385088493
 CCSD(T) total energy / hartree       =      -308.589658030941280
         Total SCF energy =   -307.410996343564
 CCSD total energy / hartree       =      -308.542956332358699
 CCSD(T) total energy / hartree       =      -308.589663185808377
         Total SCF energy =   -307.410644846091
 CCSD total energy / hartree       =      -308.542903384998567
 CCSD(T) total energy / hartree       =      -308.589658030854650
         Total SCF energy =   -307.410996343578
 CCSD total energy / hartree       =      -308.542956332374786
 CCSD(T) total energy / hartree       =      -308.589663185822531
         Total SCF energy =   -307.410634836867
 CCSD total energy / hartree       =      -308.542862500088631
 CCSD(T) total energy / hartree       =      -308.589637800076730
         Total SCF energy =   -307.410956234026
 CCSD total energy / hartree       =      -308.542948824414793
 CCSD(T) total energy / hartree       =      -308.589635739752680
         Total SCF energy =   -307.410634836860
 CCSD total energy / hartree       =      -308.542862500081696
 CCSD(T) total energy / hartree       =      -308.589637800069852
         Total SCF energy =   -307.410956234040
 CCSD total energy / hartree       =      -308.542948824428947
 CCSD(T) total energy / hartree       =      -308.589635739766834
         Total SCF energy =   -307.410634835153
 CCSD total energy / hartree       =      -308.542862498360648
 CCSD(T) total energy / hartree       =      -308.589637798363924
         Total SCF energy =   -307.410956231987
 CCSD total energy / hartree       =      -308.542948822367350
 CCSD(T) total energy / hartree       =      -308.589635737720982
@ Step       Energy      Delta E   Gmax     Grms     Xrms     Xmax   Walltime
@ ---- ---------------- -------- -------- -------- -------- -------- --------
@    0    -308.58966757  0.0D+00  0.00016  0.00004  0.00000  0.00000  17585.2
         Total SCF energy =   -307.410891469183
 CCSD total energy / hartree       =      -308.542947505027769
 CCSD(T) total energy / hartree       =      -308.589667936816454
         Total SCF energy =   -307.410891469183
 CCSD total energy / hartree       =      -308.542947505027769
 CCSD(T) total energy / hartree       =      -308.589667936816454
         Total SCF energy =   -307.410711040091
 CCSD total energy / hartree       =      -308.542916649891822
 CCSD(T) total energy / hartree       =      -308.589661036042742
         Total SCF energy =   -307.411057186410
 CCSD total energy / hartree       =      -308.542964284442689
 CCSD(T) total energy / hartree       =      -308.589660902455933
         Total SCF energy =   -307.410711040091
 CCSD total energy / hartree       =      -308.542916649892845
 CCSD(T) total energy / hartree       =      -308.589661036043822
         Total SCF energy =   -307.411057186408
 CCSD total energy / hartree       =      -308.542964284440814
 CCSD(T) total energy / hartree       =      -308.589660902454057
         Total SCF energy =   -307.410711040018
 CCSD total energy / hartree       =      -308.542916649810991
 CCSD(T) total energy / hartree       =      -308.589661035965094
         Total SCF energy =   -307.411057186369
 CCSD total energy / hartree       =      -308.542964284405457
 CCSD(T) total energy / hartree       =      -308.589660902418245
         Total SCF energy =   -307.410696960673
 CCSD total energy / hartree       =      -308.542871688494586
 CCSD(T) total energy / hartree       =      -308.589636733647012
         Total SCF energy =   -307.411021126736
 CCSD total energy / hartree       =      -308.542960832536778
 CCSD(T) total energy / hartree       =      -308.589637507454597
         Total SCF energy =   -307.410696960739
 CCSD total energy / hartree       =      -308.542871688560240
 CCSD(T) total energy / hartree       =      -308.589636733713348
         Total SCF energy =   -307.411021126711

 Vector   46  Occ=0.000000D+00  E= 4.936867D-01  Symmetry=ag

 Vector   47  Occ=0.000000D+00  E= 5.169759D-01  Symmetry=au

 CCSD total energy / hartree       =      -308.542960832512279
 CCSD(T) total energy / hartree       =      -308.589637507430155
         Total SCF energy =   -307.410696958811

 Vector    9  Occ=2.000000D+00  E=-1.232091D+00  Symmetry=ag

 Vector   10  Occ=2.000000D+00  E=-9.738048D-01  Symmetry=b1u

 Vector   11  Occ=2.000000D+00  E=-9.722257D-01  Symmetry=b3u

 Vector   12  Occ=2.000000D+00  E=-9.722257D-01  Symmetry=b2u

 Vector   13  Occ=2.000000D+00  E=-7.659734D-01  Symmetry=b2g

 Vector   14  Occ=2.000000D+00  E=-7.659734D-01  Symmetry=b3g

 Vector   15  Occ=2.000000D+00  E=-7.649897D-01  Symmetry=b1g

 Vector   16  Occ=2.000000D+00  E=-7.021695D-01  Symmetry=ag

 Vector   17  Occ=2.000000D+00  E=-6.404154D-01  Symmetry=au

 Vector   18  Occ=2.000000D+00  E=-5.762086D-01  Symmetry=b1u

 Vector   19  Occ=2.000000D+00  E=-5.750826D-01  Symmetry=b3u

 Vector   20  Occ=2.000000D+00  E=-5.750826D-01  Symmetry=b2u

 Vector   21  Occ=2.000000D+00  E=-5.714173D-01  Symmetry=ag

 Vector   22  Occ=2.000000D+00  E=-5.712860D-01  Symmetry=ag

 Vector   23  Occ=2.000000D+00  E=-3.889126D-01  Symmetry=b1u

 Vector   24  Occ=2.000000D+00  E=-3.875480D-01  Symmetry=b3u

 Vector   25  Occ=2.000000D+00  E=-3.875480D-01  Symmetry=b2u

 Vector   26  Occ=2.000000D+00  E=-3.849827D-01  Symmetry=b2g

 Vector   27  Occ=2.000000D+00  E=-3.849827D-01  Symmetry=b3g

 Vector   28  Occ=2.000000D+00  E=-3.828111D-01  Symmetry=b1g

 Vector   29  Occ=0.000000D+00  E= 1.820207D-01  Symmetry=ag

 Vector   30  Occ=0.000000D+00  E= 2.010572D-01  Symmetry=b1u

 Vector   31  Occ=0.000000D+00  E= 2.019770D-01  Symmetry=b3u

 Vector   32  Occ=0.000000D+00  E= 2.019770D-01  Symmetry=b2u

 Vector   33  Occ=0.000000D+00  E= 2.528084D-01  Symmetry=b1g

 Vector   34  Occ=0.000000D+00  E= 2.528643D-01  Symmetry=b2g

 Vector   35  Occ=0.000000D+00  E= 2.528643D-01  Symmetry=b3g

 Vector   36  Occ=0.000000D+00  E= 2.558266D-01  Symmetry=b1u

 Vector   37  Occ=0.000000D+00  E= 2.569249D-01  Symmetry=b3u

 Vector   38  Occ=0.000000D+00  E= 2.569249D-01  Symmetry=b2u

 Vector   39  Occ=0.000000D+00  E= 2.632474D-01  Symmetry=au

 Vector   40  Occ=0.000000D+00  E= 3.654381D-01  Symmetry=b2g

 Vector   41  Occ=0.000000D+00  E= 3.654381D-01  Symmetry=b3g

 Vector   42  Occ=0.000000D+00  E= 3.668176D-01  Symmetry=b1g

 Vector   43  Occ=0.000000D+00  E= 4.445000D-01  Symmetry=b2g

 Vector   44  Occ=0.000000D+00  E= 4.445000D-01  Symmetry=b3g

 Vector   45  Occ=0.000000D+00  E= 4.457860D-01  Symmetry=b1g

 Vector   46  Occ=0.000000D+00  E= 4.937879D-01  Symmetry=ag

 Vector   47  Occ=0.000000D+00  E= 5.155344D-01  Symmetry=au

 CCSD total energy / hartree       =      -308.542871686621197
 CCSD(T) total energy / hartree       =      -308.589636731790961
         Total SCF energy =   -307.411021124704

 Vector    9  Occ=2.000000D+00  E=-1.234542D+00  Symmetry=ag

 Vector   10  Occ=2.000000D+00  E=-9.743056D-01  Symmetry=b3u

 Vector   11  Occ=2.000000D+00  E=-9.743056D-01  Symmetry=b2u

 Vector   12  Occ=2.000000D+00  E=-9.727144D-01  Symmetry=b1u

 Vector   13  Occ=2.000000D+00  E=-7.657976D-01  Symmetry=b1g

 Vector   14  Occ=2.000000D+00  E=-7.648015D-01  Symmetry=b2g

 Vector   15  Occ=2.000000D+00  E=-7.648015D-01  Symmetry=b3g

 Vector   16  Occ=2.000000D+00  E=-7.022001D-01  Symmetry=ag

 Vector   17  Occ=2.000000D+00  E=-6.390321D-01  Symmetry=au

 Vector   18  Occ=2.000000D+00  E=-5.757014D-01  Symmetry=b3u

 Vector   19  Occ=2.000000D+00  E=-5.757014D-01  Symmetry=b2u

 Vector   20  Occ=2.000000D+00  E=-5.745737D-01  Symmetry=b1u

 Vector   21  Occ=2.000000D+00  E=-5.728446D-01  Symmetry=ag

 Vector   22  Occ=2.000000D+00  E=-5.727110D-01  Symmetry=ag

 Vector   23  Occ=2.000000D+00  E=-3.890724D-01  Symmetry=b3u

 Vector   24  Occ=2.000000D+00  E=-3.890724D-01  Symmetry=b2u

 Vector   25  Occ=2.000000D+00  E=-3.876993D-01  Symmetry=b1u

 Vector   26  Occ=2.000000D+00  E=-3.856260D-01  Symmetry=b1g

 Vector   27  Occ=2.000000D+00  E=-3.834543D-01  Symmetry=b2g

 Vector   28  Occ=2.000000D+00  E=-3.834543D-01  Symmetry=b3g

 Vector   29  Occ=0.000000D+00  E= 1.813411D-01  Symmetry=ag

 Vector   30  Occ=0.000000D+00  E= 2.017014D-01  Symmetry=b3u

 Vector   31  Occ=0.000000D+00  E= 2.017014D-01  Symmetry=b2u

 Vector   32  Occ=0.000000D+00  E= 2.025995D-01  Symmetry=b1u

 Vector   33  Occ=0.000000D+00  E= 2.529011D-01  Symmetry=b2g

 Vector   34  Occ=0.000000D+00  E= 2.529011D-01  Symmetry=b3g

 Vector   35  Occ=0.000000D+00  E= 2.529567D-01  Symmetry=b1g

 Vector   36  Occ=0.000000D+00  E= 2.560042D-01  Symmetry=b3u

 Vector   37  Occ=0.000000D+00  E= 2.560042D-01  Symmetry=b2u

 Vector   38  Occ=0.000000D+00  E= 2.571273D-01  Symmetry=b1u

 Vector   39  Occ=0.000000D+00  E= 2.631989D-01  Symmetry=au

 Vector   40  Occ=0.000000D+00  E= 3.659319D-01  Symmetry=b1g

 Vector   41  Occ=0.000000D+00  E= 3.673096D-01  Symmetry=b2g

 Vector   42  Occ=0.000000D+00  E= 3.673096D-01  Symmetry=b3g

 Vector   43  Occ=0.000000D+00  E= 4.446874D-01  Symmetry=b1g

 Vector   44  Occ=0.000000D+00  E= 4.459788D-01  Symmetry=b2g

 Vector   45  Occ=0.000000D+00  E= 4.459788D-01  Symmetry=b3g

 Vector   46  Occ=0.000000D+00  E= 4.936867D-01  Symmetry=ag

 Vector   47  Occ=0.000000D+00  E= 5.169759D-01  Symmetry=au

       Multipole analysis of the density wrt the origin
       ------------------------------------------------

     L   x y z        total         open         nuclear
     -   - - -        -----         ----         -------
     0   0 0 0     -0.000000      0.000000     56.000000

     1   1 0 0      0.000000      0.000000      0.000000
     1   0 1 0      0.000000      0.000000      0.000000
     1   0 0 1      0.000000      0.000000      0.000000

     2   2 0 0    -35.260249      0.000000    165.849945
     2   1 1 0      0.000000      0.000000      0.000000
     2   1 0 1     -0.000000      0.000000      0.000000
     2   0 2 0    -35.260249      0.000000    165.849945
     2   0 1 1     -0.000000      0.000000      0.000000

 CCSD total energy / hartree       =      -308.542960830490074
 CCSD(T) total energy / hartree       =      -308.589637505423866
@    1    -308.58966794 -3.7D-07  0.00001  0.00000  0.00026  0.00035  36502.4
@    1    -308.58966794 -3.7D-07  0.00001  0.00000  0.00026  0.00035  36502.4

 Output coordinates in angstroms (scale by  1.889725989 to convert to a.u.)

  No.       Tag          Charge          X              Y              Z
 ---- ---------------- ---------- -------------- -------------- --------------
    1 H                    1.0000     1.42871342     1.42871342     1.42871342
    2 H                    1.0000    -1.42871342    -1.42871342     1.42871342
    3 H                    1.0000    -1.42871342     1.42871342    -1.42871342
    4 H                    1.0000     1.42871342    -1.42871342    -1.42871342
    5 H                    1.0000    -1.42871342    -1.42871342    -1.42871342
    6 H                    1.0000     1.42871342     1.42871342    -1.42871342
    7 H                    1.0000     1.42871342    -1.42871342     1.42871342
    8 H                    1.0000    -1.42871342     1.42871342     1.42871342
    9 C                    6.0000     0.79205620     0.79205620     0.79205620
   10 C                    6.0000    -0.79205620    -0.79205620     0.79205620
   11 C                    6.0000    -0.79205620     0.79205620    -0.79205620
   12 C                    6.0000     0.79205620    -0.79205620    -0.79205620
   13 C                    6.0000    -0.79205620    -0.79205620    -0.79205620
   14 C                    6.0000     0.79205620     0.79205620    -0.79205620
   15 C                    6.0000     0.79205620    -0.79205620     0.79205620
   16 C                    6.0000    -0.79205620     0.79205620     0.79205620

 Total times  cpu:    36531.7s     wall:    36502.6s
