                         Program Version 3.0.3 - RELEASE   -
|  1> # ================================================================
|  2> # Orca input file for cubane
|  3> # ================================================================
|  4> ! LPNO-CCSD cc-pVTZ cc-pVTZ/C TightSCF TightOpt
|  5> ! NumGrad
|  6> ! PAL4
|  7>
|  8> * xyz 0 1
|  9>   H                     1.41035684     1.41035685     1.41035685
| 10>   H                    -1.41035684    -1.41035685     1.41035685
| 11>   H                    -1.41035684     1.41035685    -1.41035685
| 12>   H                     1.41035684    -1.41035685    -1.41035685
| 13>   H                    -1.41035684    -1.41035685    -1.41035685
| 14>   H                     1.41035684     1.41035685    -1.41035685
| 15>   H                     1.41035684    -1.41035685     1.41035685
| 16>   H                    -1.41035684     1.41035685     1.41035685
| 17>   C                     0.78381707     0.78381707     0.78381707
| 18>   C                    -0.78381707    -0.78381707     0.78381707
| 19>   C                    -0.78381707     0.78381707    -0.78381707
| 20>   C                     0.78381707    -0.78381707    -0.78381707
| 21>   C                    -0.78381707    -0.78381707    -0.78381707
| 22>   C                     0.78381707     0.78381707    -0.78381707
| 23>   C                     0.78381707    -0.78381707     0.78381707
| 24>   C                    -0.78381707     0.78381707     0.78381707
| 25> *
| 26>
| 27>                          ****END OF INPUT****
 Total Charge           Charge          ....    0
 Multiplicity           Mult            ....    1
 Number of Electrons    NEL             ....   56
E(0)                                       ...   -307.484937029
E(0)                                       ...   -307.484937029
E(CORR)(strong-pairs)                      ...     -1.327925191
E(CORR)(weak-pairs)                        ...     -0.003778412
E(CORR)(corrected)                         ...     -1.331703603
E(TOT)                                     ...   -308.816640632
FINAL SINGLE POINT ENERGY      -308.816640632222
                    ***********************HURRAY********************

CARTESIAN COORDINATES (ANGSTROEM)
---------------------------------
  H      1.410413    1.410413    1.410413
  H     -1.410413   -1.410413    1.410413
  H     -1.410413    1.410413   -1.410413
  H      1.410413   -1.410413   -1.410413
  H     -1.410413   -1.410413   -1.410413
  H      1.410413    1.410413   -1.410413
  H      1.410413   -1.410413    1.410413
  H     -1.410413    1.410413    1.410413
  C      0.783882    0.783882    0.783882
  C     -0.783882   -0.783882    0.783882
  C     -0.783882    0.783882   -0.783882
  C      0.783882   -0.783882   -0.783882
  C     -0.783882   -0.783882   -0.783882
  C      0.783882    0.783882   -0.783882
  C      0.783882   -0.783882    0.783882
  C     -0.783882    0.783882    0.783882

 Multiplicity           Mult            ....    1
 Number of Electrons    NEL             ....   56
 Basis Dimension        Dim             ....  352

ORBITAL ENERGIES
----------------

  NO   OCC          E(Eh)            E(eV)
   0   2.0000     -11.221500      -305.3525
   1   2.0000     -11.221007      -305.3391
   2   2.0000     -11.221007      -305.3391
   3   2.0000     -11.221007      -305.3391
   4   2.0000     -11.220502      -305.3254
   5   2.0000     -11.220502      -305.3254
   6   2.0000     -11.220502      -305.3254
   7   2.0000     -11.219978      -305.3111
   8   2.0000      -1.242855       -33.8198
   9   2.0000      -0.977821       -26.6079
  10   2.0000      -0.977821       -26.6079
  11   2.0000      -0.977821       -26.6079
  12   2.0000      -0.767807       -20.8931
  13   2.0000      -0.767807       -20.8931
  14   2.0000      -0.767807       -20.8931
  15   2.0000      -0.710224       -19.3262
  16   2.0000      -0.641872       -17.4662
  17   2.0000      -0.580027       -15.7833
  18   2.0000      -0.580027       -15.7833
  19   2.0000      -0.580027       -15.7833
  20   2.0000      -0.578598       -15.7445
  21   2.0000      -0.578598       -15.7445
  22   2.0000      -0.389951       -10.6111
  23   2.0000      -0.389951       -10.6111
  24   2.0000      -0.389951       -10.6111
  25   2.0000      -0.383167       -10.4265
  26   2.0000      -0.383167       -10.4265
  27   2.0000      -0.383167       -10.4265
  28   0.0000       0.145465         3.9583
  29   0.0000       0.162730         4.4281
  30   0.0000       0.162730         4.4281
  31   0.0000       0.162730         4.4281
  32   0.0000       0.199700         5.4341

E(0)                                       ...   -307.484921760
E(0)                                       ...   -307.484921760
E(CORR)(strong-pairs)                      ...     -1.327941038
E(CORR)(weak-pairs)                        ...     -0.003777969
E(CORR)(corrected)                         ...     -1.331719007
E(TOT)                                     ...   -308.816640767

MULLIKEN ATOMIC CHARGES
-----------------------
   0 H :    0.160096
   1 H :    0.160096
   2 H :    0.160096
   3 H :    0.160096
   4 H :    0.160096
   5 H :    0.160096
   6 H :    0.160096
   7 H :    0.160096
   8 C :   -0.160096
   9 C :   -0.160095
  10 C :   -0.160094
  11 C :   -0.160094
  12 C :   -0.160099
  13 C :   -0.160098
  14 C :   -0.160098
  15 C :   -0.160097
Sum of atomic charges:    0.0000000

LOEWDIN ATOMIC CHARGES
----------------------
   0 H :   -0.058423
   1 H :   -0.058423
   2 H :   -0.058423
   3 H :   -0.058423
   4 H :   -0.058423
   5 H :   -0.058423
   6 H :   -0.058423
   7 H :   -0.058423
   8 C :    0.058423
   9 C :    0.058423
  10 C :    0.058423
  11 C :    0.058423
  12 C :    0.058423
  13 C :    0.058423
  14 C :    0.058423
  15 C :    0.058423

  Mayer bond orders larger than 0.1
B(  0-H ,  8-C ) :   0.8903 B(  1-H ,  9-C ) :   0.8903 B(  2-H , 10-C ) :   0.8903
B(  3-H , 11-C ) :   0.8903 B(  4-H , 12-C ) :   0.8903 B(  5-H , 13-C ) :   0.8903
B(  6-H , 14-C ) :   0.8903 B(  7-H , 15-C ) :   0.8903 B(  8-C , 13-C ) :   0.8779
B(  8-C , 14-C ) :   0.8779 B(  8-C , 15-C ) :   0.8779 B(  9-C , 12-C ) :   0.8779
B(  9-C , 14-C ) :   0.8779 B(  9-C , 15-C ) :   0.8779 B( 10-C , 12-C ) :   0.8779
B( 10-C , 13-C ) :   0.8779 B( 10-C , 15-C ) :   0.8779 B( 11-C , 12-C ) :   0.8779
B( 11-C , 13-C ) :   0.8779 B( 11-C , 14-C ) :   0.8779

FINAL SINGLE POINT ENERGY      -308.816640766885

DIPOLE MOMENT
-------------
                                X             Y             Z
Electronic contribution:     -0.00000       0.00000      -0.00000
Nuclear contribution   :      0.00000      -0.00000       0.00000
                        -----------------------------------------
Total Dipole Moment    :     -0.00000       0.00000      -0.00000
                        -----------------------------------------
Magnitude (a.u.)       :      0.00000
Magnitude (Debye)      :      0.00000

                             ****ORCA TERMINATED NORMALLY****
TOTAL RUN TIME: 0 days 9 hours 2 minutes 26 seconds 165 msec
