                         Program Version 4.0.0 -  RELEASE  -
|  1> # ================================================================
|  2> # Orca input file for cubane RI-MP2/cc-pVDZ geometry optimization
|  3> # ================================================================
|  4> ! RI-MP2 cc-pVDZ cc-pVDZ/C TightSCF TightOPT UseSym
|  5> ! PAL4
|  6>
|  7> * xyz 0 3
|  8>   H                     2.06558205    -1.28286326     0.02211469
|  9>   C                     1.07464059    -0.80757103    -0.05079586
| 10>   H                     2.06558205     1.28286326     0.02211469
| 11>   C                     1.07464059     0.80757103    -0.05079586
| 12>   H                     0.00000000    -1.50306671    -2.05955799
| 13>   C                     0.00000000    -1.33057164    -0.97564719
| 14>   H                     0.00000000     1.50306671    -2.05955799
| 15>   C                     0.00000000     1.33057164    -0.97564719
| 16>   H                     0.00000000    -1.45938535     1.96899476
| 17>   C                     0.00000000    -0.77726259     1.10647220
| 18>   H                     0.00000000     1.45938535     1.96899476
| 19>   C                     0.00000000     0.77726259     1.10647220
| 20>   H                    -2.06558205    -1.28286326     0.02211469
| 21>   C                    -1.07464059    -0.80757103    -0.05079586
| 22>   H                    -2.06558205     1.28286326     0.02211469
| 23>   C                    -1.07464059     0.80757103    -0.05079586
| 24> *
| 25>
| 26>                          ****END OF INPUT****
 Total Charge           Charge          ....    0
 Multiplicity           Mult            ....    3
 Number of Electrons    NEL             ....   56
MP2 TOTAL ENERGY:     -308.411842815 Eh
FINAL SINGLE POINT ENERGY      -308.411842814631
                    ***********************HURRAY********************

CARTESIAN COORDINATES (ANGSTROEM)
---------------------------------
  H      2.065503    1.282786   -0.016223
  C      1.074587    0.807511    0.056604
  H      2.065503   -1.282786   -0.016223
  C      1.074587   -0.807511    0.056604
  H      0.000000    1.502763    2.065344
  C      0.000000    1.330375    0.981431
  H     -0.000000   -1.502763    2.065344
  C     -0.000000   -1.330375    0.981431
  H      0.000000    1.459385   -1.963071
  C      0.000000    0.777242   -1.100601
  H      0.000000   -1.459385   -1.963071
  C      0.000000   -0.777242   -1.100601
  H     -2.065503    1.282786   -0.016223
  C     -1.074587    0.807511    0.056604
  H     -2.065503   -1.282786   -0.016223
  C     -1.074587   -0.807511    0.056604

 Multiplicity           Mult            ....    3
 Number of Electrons    NEL             ....   56
 Basis Dimension        Dim             ....  152

ORBITAL ENERGIES
----------------
                 SPIN UP ORBITALS
  NO   OCC          E(Eh)            E(eV)    Irrep
   0   1.0000     -11.237985      -305.8011    1-A1
   1   1.0000     -11.237916      -305.7992    1-B2
   2   1.0000     -11.237356      -305.7840    1-B1
   3   1.0000     -11.237063      -305.7760    2-A1
   4   1.0000     -11.236922      -305.7722    1-A2
   5   1.0000     -11.236728      -305.7669    2-B2
   6   1.0000     -11.233579      -305.6812    3-A1
   7   1.0000     -11.233059      -305.6671    3-B2
   8   1.0000      -1.230374       -33.4802    4-A1
   9   1.0000      -1.060143       -28.8479    4-B2
  10   1.0000      -0.965673       -26.2773    2-B1
  11   1.0000      -0.952155       -25.9095    5-A1
  12   1.0000      -0.808332       -21.9958    5-B2
  13   1.0000      -0.787800       -21.4371    2-A2
  14   1.0000      -0.770771       -20.9737    6-A1
  15   1.0000      -0.703983       -19.1563    7-A1
  16   1.0000      -0.654308       -17.8046    6-B2
  17   1.0000      -0.633541       -17.2395    8-A1
  18   1.0000      -0.611968       -16.6525    7-B2
  19   1.0000      -0.574953       -15.6453    3-B1
  20   1.0000      -0.548799       -14.9336    9-A1
  21   1.0000      -0.527402       -14.3514    4-B1
  22   1.0000      -0.451235       -12.2787    3-A2
  23   1.0000      -0.440256       -11.9800    5-B1
  24   1.0000      -0.414134       -11.2691    8-B2
  25   1.0000      -0.413305       -11.2466   10-A1
  26   1.0000      -0.381677       -10.3860    4-A2
  27   1.0000      -0.371257       -10.1024    9-B2
  28   1.0000      -0.304290        -8.2802   11-A1
  29   0.0000       0.186759         5.0820   12-A1
  30   0.0000       0.200011         5.4426   13-A1
  31   0.0000       0.209168         5.6917    6-B1
  32   0.0000       0.229351         6.2410   10-B2
  33   0.0000       0.237911         6.4739   14-A1

                 SPIN DOWN ORBITALS
  NO   OCC          E(Eh)            E(eV)    Irrep
   0   1.0000     -11.238157      -305.8058    1-A1
   1   1.0000     -11.238135      -305.8052    1-B1
   2   1.0000     -11.237750      -305.7947    1-B2
   3   1.0000     -11.237723      -305.7940    1-A2
   4   1.0000     -11.232420      -305.6497    2-A1
   5   1.0000     -11.231905      -305.6357    2-B2
   6   1.0000     -11.212362      -305.1039    3-B2
   7   1.0000     -11.212351      -305.1036    3-A1
   8   1.0000      -1.212731       -33.0001    4-A1
   9   1.0000      -1.019464       -27.7410    4-B2
  10   1.0000      -0.958698       -26.0875    2-B1
  11   1.0000      -0.912212       -24.8226    5-A1
  12   1.0000      -0.785006       -21.3611    2-A2
  13   1.0000      -0.768929       -20.9236    5-B2
  14   1.0000      -0.735082       -20.0026    6-A1
  15   1.0000      -0.692341       -18.8395    7-A1
  16   1.0000      -0.640097       -17.4179    6-B2
  17   1.0000      -0.606272       -16.4975    8-A1
  18   1.0000      -0.603201       -16.4139    7-B2
  19   1.0000      -0.569484       -15.4964    3-B1
  20   1.0000      -0.518206       -14.1011    4-B1
  21   1.0000      -0.494295       -13.4504    9-A1
  22   1.0000      -0.435583       -11.8528    3-A2
  23   1.0000      -0.423503       -11.5241    5-B1
  24   1.0000      -0.405262       -11.0278    8-B2
  25   1.0000      -0.402548       -10.9539   10-A1
  26   1.0000      -0.380380       -10.3507    4-A2
  27   0.0000       0.124874         3.3980    9-B2
  28   0.0000       0.142803         3.8859   11-A1
  29   0.0000       0.193109         5.2548   12-A1
  30   0.0000       0.210645         5.7319    6-B1
  31   0.0000       0.215542         5.8652   13-A1

MULLIKEN ATOMIC CHARGES AND SPIN DENSITIES
------------------------------------------
   0 H :    0.014887    0.014233
   1 C :   -0.042541   -0.005900
   2 H :    0.014887    0.014233
   3 C :   -0.042541   -0.005900
   4 H :    0.028571   -0.031097
   5 C :    0.014506    1.001452
   6 H :    0.028571   -0.031097
   7 C :    0.014506    1.001452
   8 H :    0.004178    0.002049
   9 C :    0.008053    0.010931
  10 H :    0.004178    0.002049
  11 C :    0.008053    0.010931
  12 H :    0.014887    0.014233
  13 C :   -0.042541   -0.005900
  14 H :    0.014887    0.014233
  15 C :   -0.042541   -0.005900
Sum of atomic charges       :   -0.0000000

LOEWDIN ATOMIC CHARGES AND SPIN DENSITIES
-----------------------------------------
   0 H :    0.012889    0.011177
   1 C :   -0.021494    0.059528
   2 H :    0.012889    0.011177
   3 C :   -0.021494    0.059528
   4 H :    0.000293    0.008903
   5 C :    0.008243    0.835379
   6 H :    0.000293    0.008903
   7 C :    0.008243    0.835379
   8 H :    0.007120    0.001395
   9 C :    0.001555    0.012911
  10 H :    0.007120    0.001395
  11 C :    0.001555    0.012911
  12 H :    0.012889    0.011177
  13 C :   -0.021494    0.059528
  14 H :    0.012889    0.011177
  15 C :   -0.021494    0.059528

  Mayer bond orders larger than 0.1
B(  0-H ,  1-C ) :   0.9274 B(  1-C ,  3-C ) :   0.8807 B(  1-C ,  5-C ) :   0.9735
B(  1-C ,  9-C ) :   0.9078 B(  2-H ,  3-C ) :   0.9274 B(  3-C ,  7-C ) :   0.9735
B(  3-C , 11-C ) :   0.9078 B(  4-H ,  5-C ) :   0.9318 B(  5-C , 13-C ) :   0.9735
B(  6-H ,  7-C ) :   0.9318 B(  7-C , 15-C ) :   0.9735 B(  8-H ,  9-C ) :   0.9382
B(  9-C , 11-C ) :   0.9064 B(  9-C , 13-C ) :   0.9078 B( 10-H , 11-C ) :   0.9382
B( 11-C , 15-C ) :   0.9078 B( 12-H , 13-C ) :   0.9274 B( 13-C , 15-C ) :   0.8807
B( 14-H , 15-C ) :   0.9274

MP2 TOTAL ENERGY:     -308.411845480 Eh
FINAL SINGLE POINT ENERGY      -308.411845480114

DIPOLE MOMENT
-------------
                                X             Y             Z
Electronic contribution:     -0.00000       0.00000      -0.17938
Nuclear contribution   :      0.00000      -0.00000       0.13119
                        -----------------------------------------
Total Dipole Moment    :     -0.00000       0.00000      -0.04818
                        -----------------------------------------
Magnitude (a.u.)       :      0.04818
Magnitude (Debye)      :      0.12247

                             ****ORCA TERMINATED NORMALLY****
TOTAL RUN TIME: 0 days 0 hours 1 minutes 49 seconds 428 msec
