                         Program Version 4.0.0 -  RELEASE  -
|  1> # ================================================================
|  2> # Orca input file for cubane
|  3> # ================================================================
|  4> ! LPNO-CCSD cc-pVQZ cc-pVQZ/C TightSCF
|  5> ! PAL4
|  6>
|  7> %maxcore 2000
|  8>
|  9> * xyzfile 0 1 scan.xyz
| 10>
| 11>                          ****END OF INPUT****
 Total Charge           Charge          ....    0
 Multiplicity           Mult            ....    1
 Number of Electrons    NEL             ....   56
 Basis Dimension        Dim             ....  680

ORBITAL ENERGIES
----------------

  NO   OCC          E(Eh)            E(eV)
   0   2.0000     -11.218717      -305.2768
   1   2.0000     -11.218209      -305.2630
   2   2.0000     -11.218209      -305.2630
   3   2.0000     -11.218209      -305.2630
   4   2.0000     -11.217689      -305.2488
   5   2.0000     -11.217689      -305.2488
   6   2.0000     -11.217689      -305.2488
   7   2.0000     -11.217155      -305.2343
   8   2.0000      -1.247928       -33.9578
   9   2.0000      -0.980003       -26.6672
  10   2.0000      -0.980003       -26.6672
  11   2.0000      -0.980003       -26.6672
  12   2.0000      -0.767406       -20.8822
  13   2.0000      -0.767406       -20.8822
  14   2.0000      -0.767406       -20.8822
  15   2.0000      -0.711439       -19.3592
  16   2.0000      -0.640183       -17.4203
  17   2.0000      -0.581808       -15.8318
  18   2.0000      -0.581808       -15.8318
  19   2.0000      -0.580638       -15.8000
  20   2.0000      -0.580638       -15.8000
  21   2.0000      -0.580638       -15.8000
  22   2.0000      -0.391273       -10.6471
  23   2.0000      -0.391273       -10.6471
  24   2.0000      -0.391273       -10.6471
  25   2.0000      -0.383109       -10.4249
  26   2.0000      -0.383109       -10.4249
  27   2.0000      -0.383109       -10.4249
  28   0.0000       0.116135         3.1602
  29   0.0000       0.131394         3.5754
  30   0.0000       0.131394         3.5754
  31   0.0000       0.131394         3.5754
  32   0.0000       0.161039         4.3821

E(0)                                       ...   -307.503508726
E(0)                                       ...   -307.503508726
E(CORR)(strong-pairs)                      ...     -1.389971324
E(CORR)(weak-pairs)                        ...     -0.006472917
E(CORR)(corrected)                         ...     -1.396444241
E(TOT)                                     ...   -308.899952967

MULLIKEN ATOMIC CHARGES
-----------------------
   0 H :    0.215760
   1 H :    0.215760
   2 H :    0.215760
   3 H :    0.215759
   4 H :    0.215764
   5 H :    0.215764
   6 H :    0.215763
   7 H :    0.215761
   8 C :   -0.215777
   9 C :   -0.215779
  10 C :   -0.215779
  11 C :   -0.215778
  12 C :   -0.215744
  13 C :   -0.215745
  14 C :   -0.215745
  15 C :   -0.215743
Sum of atomic charges:   -0.0000000

LOEWDIN ATOMIC CHARGES
----------------------
   0 H :   -0.119849
   1 H :   -0.119849
   2 H :   -0.119849
   3 H :   -0.119849
   4 H :   -0.119849
   5 H :   -0.119849
   6 H :   -0.119849
   7 H :   -0.119849
   8 C :    0.119849
   9 C :    0.119849
  10 C :    0.119849
  11 C :    0.119849
  12 C :    0.119849
  13 C :    0.119849
  14 C :    0.119849
  15 C :    0.119849

  Mayer bond orders larger than 0.1
B(  0-H ,  8-C ) :   0.9092 B(  1-H ,  9-C ) :   0.9092 B(  2-H , 10-C ) :   0.9092
B(  3-H , 11-C ) :   0.9092 B(  4-H , 12-C ) :   0.9092 B(  5-H , 13-C ) :   0.9092
B(  6-H , 14-C ) :   0.9092 B(  7-H , 15-C ) :   0.9092 B(  8-C , 13-C ) :   0.8581
B(  8-C , 14-C ) :   0.8581 B(  8-C , 15-C ) :   0.8581 B(  9-C , 12-C ) :   0.8581
B(  9-C , 14-C ) :   0.8581 B(  9-C , 15-C ) :   0.8581 B( 10-C , 12-C ) :   0.8581
B( 10-C , 13-C ) :   0.8581 B( 10-C , 15-C ) :   0.8581 B( 11-C , 12-C ) :   0.8581
B( 11-C , 13-C ) :   0.8581 B( 11-C , 14-C ) :   0.8581

FINAL SINGLE POINT ENERGY      -308.899952967045
FINAL SINGLE POINT ENERGY      -308.899901699118
FINAL SINGLE POINT ENERGY      -308.899830927221
FINAL SINGLE POINT ENERGY      -308.899994880738
FINAL SINGLE POINT ENERGY      -308.899972702047
FINAL SINGLE POINT ENERGY      -308.899930845714
FINAL SINGLE POINT ENERGY      -308.899951595957
FINAL SINGLE POINT ENERGY      -308.899969218380

CARTESIAN COORDINATES (ANGSTROEM)
---------------------------------
  H      1.410000    1.410000    1.410000
  H     -1.410000   -1.410000    1.410000
  H     -1.410000    1.410000   -1.410000
  H      1.410000   -1.410000   -1.410000
  H     -1.410000   -1.410000   -1.410000
  H      1.410000    1.410000   -1.410000
  H      1.410000   -1.410000    1.410000
  H     -1.410000    1.410000    1.410000
  C      0.783000    0.783000    0.783000
  C     -0.783000   -0.783000    0.783000
  C     -0.783000    0.783000   -0.783000
  C      0.783000   -0.783000   -0.783000
  C     -0.783000   -0.783000   -0.783000
  C      0.783000    0.783000   -0.783000
  C      0.783000   -0.783000    0.783000
  C     -0.783000    0.783000    0.783000

E(0)                                       ...   -307.503163055
E(0)                                       ...   -307.503163055
E(CORR)(strong-pairs)                      ...     -1.390341423
E(CORR)(weak-pairs)                        ...     -0.006452115
E(CORR)(corrected)                         ...     -1.396793537
E(TOT)                                     ...   -308.899956593
FINAL SINGLE POINT ENERGY      -308.899956592790

DIPOLE MOMENT
-------------
                                X             Y             Z
Electronic contribution:     -0.00000      -0.00000       0.00000
Nuclear contribution   :      0.00000       0.00000       0.00000
                        -----------------------------------------
Total Dipole Moment    :     -0.00000      -0.00000       0.00000
                        -----------------------------------------
Magnitude (a.u.)       :      0.00000
Magnitude (Debye)      :      0.00000

                             ****ORCA TERMINATED NORMALLY****
TOTAL RUN TIME: 0 days 8 hours 7 minutes 31 seconds 155 msec
