         Total DFT energy =     -309.506928462544
@ Step       Energy      Delta E   Gmax     Grms     Xrms     Xmax   Walltime
@ ---- ---------------- -------- -------- -------- -------- -------- --------
@    0    -309.50692846  0.0D+00  0.00003  0.00001  0.00000  0.00000    174.4
         Total DFT energy =     -309.506929863923

                    DFT Final Alpha Molecular Orbital Analysis
                    ------------------------------------------

 Vector    1  Occ=1.000000D+00  E=-1.018553D+01  Symmetry=a1

 Vector  256  Occ=0.000000D+00  E= 3.751833D+00  Symmetry=a1

 Vector  257  Occ=0.000000D+00  E= 3.787778D+00  Symmetry=a1

 Vector  258  Occ=0.000000D+00  E= 3.824252D+00  Symmetry=b2

 Vector  259  Occ=0.000000D+00  E= 3.835757D+00  Symmetry=b1

 Vector  260  Occ=0.000000D+00  E= 3.862151D+00  Symmetry=b2

 Vector  261  Occ=0.000000D+00  E= 3.875069D+00  Symmetry=b1

 Vector  262  Occ=0.000000D+00  E= 3.878270D+00  Symmetry=a1

 Vector  263  Occ=0.000000D+00  E= 3.937174D+00  Symmetry=b2

 Vector  264  Occ=0.000000D+00  E= 3.995905D+00  Symmetry=a2

 Vector  265  Occ=0.000000D+00  E= 3.998830D+00  Symmetry=b1

 Vector  266  Occ=0.000000D+00  E= 4.019257D+00  Symmetry=a2

 Vector  267  Occ=0.000000D+00  E= 4.040648D+00  Symmetry=a1

 Vector  268  Occ=0.000000D+00  E= 4.063127D+00  Symmetry=b2

 Vector  269  Occ=0.000000D+00  E= 4.065244D+00  Symmetry=a1

 Vector  270  Occ=0.000000D+00  E= 4.087607D+00  Symmetry=a2

 Vector  271  Occ=0.000000D+00  E= 4.122099D+00  Symmetry=b1

 Vector  272  Occ=0.000000D+00  E= 4.123266D+00  Symmetry=b2

 Vector  273  Occ=0.000000D+00  E= 4.193124D+00  Symmetry=b2

 Vector  274  Occ=0.000000D+00  E= 4.217640D+00  Symmetry=a2

 Vector  275  Occ=0.000000D+00  E= 4.237112D+00  Symmetry=a1

 Vector  276  Occ=0.000000D+00  E= 4.283348D+00  Symmetry=b1

 Vector  277  Occ=0.000000D+00  E= 4.308451D+00  Symmetry=b2

 Vector  278  Occ=0.000000D+00  E= 4.350914D+00  Symmetry=a1

 Vector  279  Occ=0.000000D+00  E= 4.356621D+00  Symmetry=a2

 Vector  280  Occ=0.000000D+00  E= 4.371056D+00  Symmetry=b2

 Vector  281  Occ=0.000000D+00  E= 4.395700D+00  Symmetry=a1

 Vector  282  Occ=0.000000D+00  E= 4.407667D+00  Symmetry=b1

 Vector  283  Occ=0.000000D+00  E= 4.470583D+00  Symmetry=b2

 Vector  284  Occ=0.000000D+00  E= 4.475501D+00  Symmetry=a2

 Vector  285  Occ=0.000000D+00  E= 4.510048D+00  Symmetry=a1

 Vector  286  Occ=0.000000D+00  E= 4.528376D+00  Symmetry=b2

 Vector  287  Occ=0.000000D+00  E= 4.535023D+00  Symmetry=a1

 Vector  288  Occ=0.000000D+00  E= 4.555894D+00  Symmetry=b1

 Vector  289  Occ=0.000000D+00  E= 4.571494D+00  Symmetry=a2

 Vector  290  Occ=0.000000D+00  E= 4.637211D+00  Symmetry=b1

 Vector  291  Occ=0.000000D+00  E= 4.647191D+00  Symmetry=b2

 Vector  292  Occ=0.000000D+00  E= 4.737832D+00  Symmetry=a2

 Vector  293  Occ=0.000000D+00  E= 4.752137D+00  Symmetry=b2

 Vector  294  Occ=0.000000D+00  E= 4.789172D+00  Symmetry=a2

 Vector  295  Occ=0.000000D+00  E= 4.835095D+00  Symmetry=a2

 Vector  296  Occ=0.000000D+00  E= 4.864412D+00  Symmetry=a1

 Vector  297  Occ=0.000000D+00  E= 4.928504D+00  Symmetry=b2

 Vector  298  Occ=0.000000D+00  E= 4.929784D+00  Symmetry=a2

 Vector  299  Occ=0.000000D+00  E= 4.951725D+00  Symmetry=b1

 Vector  300  Occ=0.000000D+00  E= 5.027165D+00  Symmetry=b2

 Vector  301  Occ=0.000000D+00  E= 5.051053D+00  Symmetry=b2

 Vector  302  Occ=0.000000D+00  E= 5.077505D+00  Symmetry=a1

 Vector  303  Occ=0.000000D+00  E= 5.092579D+00  Symmetry=a2

 Vector  304  Occ=0.000000D+00  E= 5.119099D+00  Symmetry=a1

 Vector  305  Occ=0.000000D+00  E= 5.147155D+00  Symmetry=b1

 Vector  306  Occ=0.000000D+00  E= 5.201929D+00  Symmetry=b1

 Vector  307  Occ=0.000000D+00  E= 5.225635D+00  Symmetry=b2

 Vector  308  Occ=0.000000D+00  E= 5.257375D+00  Symmetry=a1

 Vector  309  Occ=0.000000D+00  E= 5.315034D+00  Symmetry=a1

 Vector  310  Occ=0.000000D+00  E= 5.319659D+00  Symmetry=b2

 Vector  311  Occ=0.000000D+00  E= 5.360336D+00  Symmetry=a2

 Vector  312  Occ=0.000000D+00  E= 5.655737D+00  Symmetry=b2

 Vector  313  Occ=0.000000D+00  E= 5.762081D+00  Symmetry=a2

 Vector  314  Occ=0.000000D+00  E= 5.792531D+00  Symmetry=a1

 Vector  315  Occ=0.000000D+00  E= 5.948332D+00  Symmetry=b2

 Vector  316  Occ=0.000000D+00  E= 6.236287D+00  Symmetry=b2

 Vector  317  Occ=0.000000D+00  E= 7.197708D+00  Symmetry=b2

 Vector  318  Occ=0.000000D+00  E= 7.790214D+00  Symmetry=a2

 Vector  319  Occ=0.000000D+00  E= 7.850056D+00  Symmetry=a1

 Vector  320  Occ=0.000000D+00  E= 7.911587D+00  Symmetry=b2

 Vector  321  Occ=0.000000D+00  E= 7.997904D+00  Symmetry=b2

 Vector  322  Occ=0.000000D+00  E= 8.023199D+00  Symmetry=a1

 Vector  323  Occ=0.000000D+00  E= 8.040190D+00  Symmetry=b1

 Vector  324  Occ=0.000000D+00  E= 8.118638D+00  Symmetry=a1

 Vector  325  Occ=0.000000D+00  E= 8.159579D+00  Symmetry=a2

 Vector  326  Occ=0.000000D+00  E= 8.173852D+00  Symmetry=b2

 Vector  327  Occ=0.000000D+00  E= 8.354994D+00  Symmetry=b2

 Vector  328  Occ=0.000000D+00  E= 3.455138D+01  Symmetry=a1

 Vector  329  Occ=0.000000D+00  E= 3.469020D+01  Symmetry=b2

 Vector  330  Occ=0.000000D+00  E= 3.479220D+01  Symmetry=a1

 Vector  331  Occ=0.000000D+00  E= 3.479820D+01  Symmetry=b1

 Vector  332  Occ=0.000000D+00  E= 3.495257D+01  Symmetry=a1

 Vector  333  Occ=0.000000D+00  E= 3.496844D+01  Symmetry=b2

 Vector  334  Occ=0.000000D+00  E= 3.497710D+01  Symmetry=a2

 Vector  335  Occ=0.000000D+00  E= 3.500577D+01  Symmetry=b2

     Multipole analysis of the density
     ---------------------------------

     L   x y z        total         alpha         beta         nuclear
     -   - - -        -----         -----         ----         -------
     0   0 0 0      0.000000    -29.000000    -27.000000     56.000000

     1   1 0 0      0.000000      0.000000     -0.000000     -0.000000
     1   0 1 0      0.000000      0.000000      0.000000     -0.000000
     1   0 0 1      0.094455      1.541181     -1.447940      0.001214

     2   2 0 0    -34.261836    -97.777304    -94.587240    158.102708
     2   1 1 0      0.000000     -0.000000      0.000000      0.000000
     2   1 0 1     -0.000000     -0.000000     -0.000000      0.000000
     2   0 2 0    -37.341414   -134.758725   -116.441625    213.858936
     2   0 1 1      0.000000      0.000000     -0.000000      0.000000

         Total DFT energy =   -309.506929863923
@    1    -309.50692986 -1.4D-06  0.00001  0.00000  0.00011  0.00041    271.1
@    1    -309.50692986 -1.4D-06  0.00001  0.00000  0.00011  0.00041    271.1

 Output coordinates in angstroms (scale by  1.889725989 to convert to a.u.)

  No.       Tag          Charge          X              Y              Z
 ---- ---------------- ---------- -------------- -------------- --------------
    1 H                    1.0000     2.04893087    -1.28383450     0.01448196
    2 C                    6.0000     1.07006236    -0.81238191    -0.05732752
    3 H                    1.0000     2.04893087     1.28383450     0.01448196
    4 C                    6.0000     1.07006236     0.81238191    -0.05732752
    5 H                    1.0000     0.00000000    -1.60997213    -2.01623193
    6 C                    6.0000     0.00000000    -1.32313603    -0.97148379
    7 H                    1.0000     0.00000000     1.60997213    -2.01623193
    8 C                    6.0000     0.00000000     1.32313603    -0.97148379
    9 H                    1.0000     0.00000000    -1.43935560     1.94872126
   10 C                    6.0000     0.00000000    -0.77021447     1.09261681
   11 H                    1.0000     0.00000000     1.43935560     1.94872126
   12 C                    6.0000     0.00000000     0.77021447     1.09261681
   13 H                    1.0000    -2.04893087    -1.28383450     0.01448196
   14 C                    6.0000    -1.07006236    -0.81238191    -0.05732752
   15 H                    1.0000    -2.04893087     1.28383450     0.01448196
   16 C                    6.0000    -1.07006236     0.81238191    -0.05732752

 Total times  cpu:      482.7s     wall:      271.1s
