                         Program Version 3.0.3 - RELEASE   -
|  1> # ================================================================
|  2> # Orca input file for cubane
|  3> # ================================================================
|  4> ! DLPNO-CCSD(T) cc-pVDZ cc-pVDZ/C TightSCF TightOpt
|  5> ! NumGrad
|  6> ! PAL4
|  7>
|  8> %maxcore 2000
|  9>
| 10> * xyz 0 1
| 11>  H                     1.42871342     1.42871342     1.42871342
| 12>  H                    -1.42871342    -1.42871342     1.42871342
| 13>  H                    -1.42871342     1.42871342    -1.42871342
| 14>  H                     1.42871342    -1.42871342    -1.42871342
| 15>  H                    -1.42871342    -1.42871342    -1.42871342
| 16>  H                     1.42871342     1.42871342    -1.42871342
| 17>  H                     1.42871342    -1.42871342     1.42871342
| 18>  H                    -1.42871342     1.42871342     1.42871342
| 19>  C                     0.79205620     0.79205620     0.79205620
| 20>  C                    -0.79205620    -0.79205620     0.79205620
| 21>  C                    -0.79205620     0.79205620    -0.79205620
| 22>  C                     0.79205620    -0.79205620    -0.79205620
| 23>  C                    -0.79205620    -0.79205620    -0.79205620
| 24>  C                     0.79205620     0.79205620    -0.79205620
| 25>  C                     0.79205620    -0.79205620     0.79205620
| 26>  C                    -0.79205620     0.79205620     0.79205620
| 27> *
| 28>
| 29>                          ****END OF INPUT****
 Total Charge           Charge          ....    0
 Multiplicity           Mult            ....    1
 Number of Electrons    NEL             ....   56
E(0)                                       ...   -307.410891634
E(0)                                       ...   -307.410891634
E(CORR)(strong-pairs)                      ...     -1.128562257
E(CORR)(weak-pairs)                        ...     -0.001869921
E(CORR)(corrected)                         ...     -1.130432178
E(TOT)                                     ...   -308.541323811
FINAL SINGLE POINT ENERGY      -308.584512063187
FINAL SINGLE POINT ENERGY      -308.584512599126
                    ***********************HURRAY********************

CARTESIAN COORDINATES (ANGSTROEM)
---------------------------------
  H      1.428478    1.428479    1.428478
  H     -1.428478   -1.428478    1.428478
  H     -1.428478    1.428478   -1.428478
  H      1.428478   -1.428478   -1.428478
  H     -1.428478   -1.428478   -1.428478
  H      1.428478    1.428478   -1.428478
  H      1.428478   -1.428478    1.428478
  H     -1.428478    1.428478    1.428478
  C      0.791964    0.791964    0.791964
  C     -0.791964   -0.791964    0.791964
  C     -0.791964    0.791964   -0.791964
  C      0.791964   -0.791964   -0.791964
  C     -0.791964   -0.791964   -0.791964
  C      0.791964    0.791964   -0.791964
  C      0.791964   -0.791964    0.791964
  C     -0.791964    0.791964    0.791964

 Multiplicity           Mult            ....    1
 Number of Electrons    NEL             ....   56
 Basis Dimension        Dim             ....  152

ORBITAL ENERGIES
----------------

  NO   OCC          E(Eh)            E(eV)
   0   2.0000     -11.231617      -305.6278
   1   2.0000     -11.231157      -305.6153
   2   2.0000     -11.231157      -305.6153
   3   2.0000     -11.231157      -305.6153
   4   2.0000     -11.230688      -305.6025
   5   2.0000     -11.230688      -305.6025
   6   2.0000     -11.230688      -305.6025
   7   2.0000     -11.230200      -305.5893
   8   2.0000      -1.233459       -33.5641
   9   2.0000      -0.973342       -26.4860
  10   2.0000      -0.973342       -26.4860
  11   2.0000      -0.973342       -26.4860
  12   2.0000      -0.765443       -20.8288
  13   2.0000      -0.765443       -20.8288
  14   2.0000      -0.765443       -20.8288
  15   2.0000      -0.702296       -19.1104
  16   2.0000      -0.639775       -17.4092
  17   2.0000      -0.575463       -15.6592
  18   2.0000      -0.575463       -15.6592
  19   2.0000      -0.575463       -15.6592
  20   2.0000      -0.572137       -15.5686
  21   2.0000      -0.572137       -15.5686
  22   2.0000      -0.388327       -10.5669
  23   2.0000      -0.388327       -10.5669
  24   2.0000      -0.388327       -10.5669
  25   2.0000      -0.384215       -10.4550
  26   2.0000      -0.384215       -10.4550
  27   2.0000      -0.384215       -10.4550
  28   0.0000       0.181726         4.9450
  29   0.0000       0.201871         5.4932
  30   0.0000       0.201871         5.4932
  31   0.0000       0.201871         5.4932
  32   0.0000       0.252926         6.8825

E(0)                                       ...   -307.410980231
E(CORR)(strong-pairs)                      ...     -1.128488723
E(CORR)(weak-pairs)                        ...     -0.001869770
E(CORR)(corrected)                         ...     -1.130358494
E(TOT)                                     ...   -308.541338724
E(CCSD(T))                                 ...   -308.584512613

MULLIKEN ATOMIC CHARGES
-----------------------
   0 H :   -0.003798
   1 H :   -0.003798
   2 H :   -0.003798
   3 H :   -0.003798
   4 H :   -0.003798
   5 H :   -0.003798
   6 H :   -0.003798
   7 H :   -0.003798
   8 C :    0.003798
   9 C :    0.003798
  10 C :    0.003798
  11 C :    0.003798
  12 C :    0.003798
  13 C :    0.003798
  14 C :    0.003798
  15 C :    0.003798
Sum of atomic charges:    0.0000000

LOEWDIN ATOMIC CHARGES
----------------------
   0 H :    0.001933
   1 H :    0.001933
   2 H :    0.001933
   3 H :    0.001933
   4 H :    0.001933
   5 H :    0.001933
   6 H :    0.001933
   7 H :    0.001933
   8 C :   -0.001933
   9 C :   -0.001933
  10 C :   -0.001933
  11 C :   -0.001933
  12 C :   -0.001933
  13 C :   -0.001933
  14 C :   -0.001933
  15 C :   -0.001933

  Mayer bond orders larger than 0.1
B(  0-H ,  8-C ) :   0.9336 B(  1-H ,  9-C ) :   0.9336 B(  2-H , 10-C ) :   0.9336
B(  3-H , 11-C ) :   0.9336 B(  4-H , 12-C ) :   0.9336 B(  5-H , 13-C ) :   0.9336
B(  6-H , 14-C ) :   0.9336 B(  7-H , 15-C ) :   0.9336 B(  8-C , 13-C ) :   0.9015
B(  8-C , 14-C ) :   0.9015 B(  8-C , 15-C ) :   0.9015 B(  9-C , 12-C ) :   0.9015
B(  9-C , 14-C ) :   0.9015 B(  9-C , 15-C ) :   0.9015 B( 10-C , 12-C ) :   0.9015
B( 10-C , 13-C ) :   0.9015 B( 10-C , 15-C ) :   0.9015 B( 11-C , 12-C ) :   0.9015
B( 11-C , 13-C ) :   0.9015 B( 11-C , 14-C ) :   0.9015

FINAL SINGLE POINT ENERGY      -308.584512613270

DIPOLE MOMENT
-------------
                                X             Y             Z
Electronic contribution:      0.00000      -0.00000      -0.00000
Nuclear contribution   :     -0.00000       0.00000       0.00000
                        -----------------------------------------
Total Dipole Moment    :     -0.00000       0.00000      -0.00000
                        -----------------------------------------
Magnitude (a.u.)       :      0.00000
Magnitude (Debye)      :      0.00000

                             ****ORCA TERMINATED NORMALLY****
TOTAL RUN TIME: 0 days 6 hours 15 minutes 32 seconds 657 msec
